T/K,P/MPa,TC/W m-1 K-1,Data type,Name,SMILES,Normalized SMILES,index,P/bar,RANDOM,IL
343.0,0.1,0.14,Training,trihexyltetradecylphosphonium bis(trifluoromethylsulfonyl)imide,CCCCCCCCCCCCCC[P+](CCCCCC)(CCCCCC)CCCCCC.C(F)(F)(F)S(=O)(=O)[N-]S(=O)(=O)C(F)(F)F,CCCCCCCCCCCCCC[P+](CCCCCC)(CCCCCC)CCCCCC.O=S(=O)([N-]S(=O)(=O)C(F)(F)F)C(F)(F)F,17,1,428,17
343.0,0.1,0.14,Training,trihexyltetradecylphosphonium bis(trifluoromethylsulfonyl)imide,CCCCCCCCCCCCCC[P+](CCCCCC)(CCCCCC)CCCCCC.C(F)(F)(F)S(=O)(=O)[N-]S(=O)(=O)C(F)(F)F,C(CCCCCCCCCCC[P+](CCCCCC)(CCCCCC)CCCCCC)CC.O=S(=O)([N-]S(=O)(C(F)(F)F)=O)C(F)(F)F,17,1,428,17
343.0,0.1,0.14,Training,trihexyltetradecylphosphonium bis(trifluoromethylsulfonyl)imide,CCCCCCCCCCCCCC[P+](CCCCCC)(CCCCCC)CCCCCC.C(F)(F)(F)S(=O)(=O)[N-]S(=O)(=O)C(F)(F)F,C(CCCCCCCCC)CCCC[P+](CCCCCC)(CCCCCC)CCCCCC.S(=O)([N-]S(=O)(C(F)(F)F)=O)(C(F)(F)F)=O,17,1,428,17
343.0,0.1,0.14,Training,trihexyltetradecylphosphonium bis(trifluoromethylsulfonyl)imide,CCCCCCCCCCCCCC[P+](CCCCCC)(CCCCCC)CCCCCC.C(F)(F)(F)S(=O)(=O)[N-]S(=O)(=O)C(F)(F)F,C(F)(S([N-]S(C(F)(F)F)(=O)=O)(=O)=O)(F)F.C([P+](CCCCCCCCCCCCCC)(CCCCCC)CCCCCC)CCCCC,17,1,428,17
343.0,0.1,0.14,Training,trihexyltetradecylphosphonium bis(trifluoromethylsulfonyl)imide,CCCCCCCCCCCCCC[P+](CCCCCC)(CCCCCC)CCCCCC.C(F)(F)(F)S(=O)(=O)[N-]S(=O)(=O)C(F)(F)F,C(CCCCC)[P+](CCCCCC)(CCCCCC)CCCCCCCCCCCCCC.O=S(=O)([N-]S(=O)(C(F)(F)F)=O)C(F)(F)F,17,1,428,17
343.0,0.1,0.14,Training,trihexyltetradecylphosphonium bis(trifluoromethylsulfonyl)imide,CCCCCCCCCCCCCC[P+](CCCCCC)(CCCCCC)CCCCCC.C(F)(F)(F)S(=O)(=O)[N-]S(=O)(=O)C(F)(F)F,C(CCCCCCCCCCCCC)[P+](CCCCCC)(CCCCCC)CCCCCC.FC(S(=O)([N-]S(=O)(=O)C(F)(F)F)=O)(F)F,17,1,428,17
343.0,0.1,0.14,Training,trihexyltetradecylphosphonium bis(trifluoromethylsulfonyl)imide,CCCCCCCCCCCCCC[P+](CCCCCC)(CCCCCC)CCCCCC.C(F)(F)(F)S(=O)(=O)[N-]S(=O)(=O)C(F)(F)F,C([P+](CCCCCCCCCCCCCC)(CCCCCC)CCCCCC)CCCCC.O=S(=O)(C(F)(F)F)[N-]S(=O)(=O)C(F)(F)F,17,1,428,17
343.0,0.1,0.14,Training,trihexyltetradecylphosphonium bis(trifluoromethylsulfonyl)imide,CCCCCCCCCCCCCC[P+](CCCCCC)(CCCCCC)CCCCCC.C(F)(F)(F)S(=O)(=O)[N-]S(=O)(=O)C(F)(F)F,C(CCCC)CCCCCCCCC[P+](CCCCCC)(CCCCCC)CCCCCC.C(S(=O)(=O)[N-]S(C(F)(F)F)(=O)=O)(F)(F)F,17,1,428,17
343.0,0.1,0.14,Training,trihexyltetradecylphosphonium bis(trifluoromethylsulfonyl)imide,CCCCCCCCCCCCCC[P+](CCCCCC)(CCCCCC)CCCCCC.C(F)(F)(F)S(=O)(=O)[N-]S(=O)(=O)C(F)(F)F,C(CCCC)C[P+](CCCCCC)(CCCCCCCCCCCCCC)CCCCCC.C(S(=O)([N-]S(=O)(=O)C(F)(F)F)=O)(F)(F)F,17,1,428,17
343.0,0.1,0.14,Training,trihexyltetradecylphosphonium bis(trifluoromethylsulfonyl)imide,CCCCCCCCCCCCCC[P+](CCCCCC)(CCCCCC)CCCCCC.C(F)(F)(F)S(=O)(=O)[N-]S(=O)(=O)C(F)(F)F,C(CCCCCCCCCCC)CC[P+](CCCCCC)(CCCCCC)CCCCCC.FC(F)(F)S([N-]S(=O)(=O)C(F)(F)F)(=O)=O,17,1,428,17
353.0,0.1,0.139,Testing,trihexyltetradecylphosphonium bis(trifluoromethylsulfonyl)imide,CCCCCCCCCCCCCC[P+](CCCCCC)(CCCCCC)CCCCCC.C(F)(F)(F)S(=O)(=O)[N-]S(=O)(=O)C(F)(F)F,CCCCCCCCCCCCCC[P+](CCCCCC)(CCCCCC)CCCCCC.O=S(=O)([N-]S(=O)(=O)C(F)(F)F)C(F)(F)F,17,1,429,17
353.0,0.1,0.139,Testing,trihexyltetradecylphosphonium bis(trifluoromethylsulfonyl)imide,CCCCCCCCCCCCCC[P+](CCCCCC)(CCCCCC)CCCCCC.C(F)(F)(F)S(=O)(=O)[N-]S(=O)(=O)C(F)(F)F,C(CCCC)C[P+](CCCCCC)(CCCCCC)CCCCCCCCCCCCCC.O=S(C(F)(F)F)(=O)[N-]S(C(F)(F)F)(=O)=O,17,1,429,17
353.0,0.1,0.139,Testing,trihexyltetradecylphosphonium bis(trifluoromethylsulfonyl)imide,CCCCCCCCCCCCCC[P+](CCCCCC)(CCCCCC)CCCCCC.C(F)(F)(F)S(=O)(=O)[N-]S(=O)(=O)C(F)(F)F,C(CCCCCCCCCC)CCC[P+](CCCCCC)(CCCCCC)CCCCCC.FC(F)(F)S(=O)([N-]S(C(F)(F)F)(=O)=O)=O,17,1,429,17
353.0,0.1,0.139,Testing,trihexyltetradecylphosphonium bis(trifluoromethylsulfonyl)imide,CCCCCCCCCCCCCC[P+](CCCCCC)(CCCCCC)CCCCCC.C(F)(F)(F)S(=O)(=O)[N-]S(=O)(=O)C(F)(F)F,FC(F)(F)S(=O)([N-]S(=O)(=O)C(F)(F)F)=O.[P+](CCCCCC)(CCCCCC)(CCCCCCCCCCCCCC)CCCCCC,17,1,429,17
353.0,0.1,0.139,Testing,trihexyltetradecylphosphonium bis(trifluoromethylsulfonyl)imide,CCCCCCCCCCCCCC[P+](CCCCCC)(CCCCCC)CCCCCC.C(F)(F)(F)S(=O)(=O)[N-]S(=O)(=O)C(F)(F)F,C(CCCCC)[P+](CCCCCC)(CCCCCC)CCCCCCCCCCCCCC.FC(F)(F)S(=O)(=O)[N-]S(=O)(=O)C(F)(F)F,17,1,429,17
353.0,0.1,0.139,Testing,trihexyltetradecylphosphonium bis(trifluoromethylsulfonyl)imide,CCCCCCCCCCCCCC[P+](CCCCCC)(CCCCCC)CCCCCC.C(F)(F)(F)S(=O)(=O)[N-]S(=O)(=O)C(F)(F)F,C(CCCCCCCCCCC)CC[P+](CCCCCC)(CCCCCC)CCCCCC.FC(F)(S(=O)([N-]S(C(F)(F)F)(=O)=O)=O)F,17,1,429,17
353.0,0.1,0.139,Testing,trihexyltetradecylphosphonium bis(trifluoromethylsulfonyl)imide,CCCCCCCCCCCCCC[P+](CCCCCC)(CCCCCC)CCCCCC.C(F)(F)(F)S(=O)(=O)[N-]S(=O)(=O)C(F)(F)F,C([P+](CCCCCC)(CCCCCCCCCCCCCC)CCCCCC)CCCCC.FC(F)(F)S(=O)([N-]S(=O)(C(F)(F)F)=O)=O,17,1,429,17
353.0,0.1,0.139,Testing,trihexyltetradecylphosphonium bis(trifluoromethylsulfonyl)imide,CCCCCCCCCCCCCC[P+](CCCCCC)(CCCCCC)CCCCCC.C(F)(F)(F)S(=O)(=O)[N-]S(=O)(=O)C(F)(F)F,C(CC)CCCCCCCCCCC[P+](CCCCCC)(CCCCCC)CCCCCC.C(F)(S(=O)(=O)[N-]S(=O)(=O)C(F)(F)F)(F)F,17,1,429,17
353.0,0.1,0.139,Testing,trihexyltetradecylphosphonium bis(trifluoromethylsulfonyl)imide,CCCCCCCCCCCCCC[P+](CCCCCC)(CCCCCC)CCCCCC.C(F)(F)(F)S(=O)(=O)[N-]S(=O)(=O)C(F)(F)F,CCCCCC[P+](CCCCCC)(CCCCCC)CCCCCCCCCCCCCC.O=S(=O)([N-]S(=O)(C(F)(F)F)=O)C(F)(F)F,17,1,429,17
353.0,0.1,0.139,Testing,trihexyltetradecylphosphonium bis(trifluoromethylsulfonyl)imide,CCCCCCCCCCCCCC[P+](CCCCCC)(CCCCCC)CCCCCC.C(F)(F)(F)S(=O)(=O)[N-]S(=O)(=O)C(F)(F)F,CCCCCC[P+](CCCCCC)(CCCCCC)CCCCCCCCCCCCCC.FC(S(=O)([N-]S(C(F)(F)F)(=O)=O)=O)(F)F,17,1,429,17
293.0,0.1,0.158,Training,1-hexyl-3-methylimidazolium tetrafluoroborate,[B-](F)(F)(F)F.CCCCCCN1C=C[N+](=C1)C,CCCCCCn1cc[n+](C)c1.F[B-](F)(F)F,32,1,430,32
293.0,0.1,0.158,Training,1-hexyl-3-methylimidazolium tetrafluoroborate,[B-](F)(F)(F)F.CCCCCCN1C=C[N+](=C1)C,[B-](F)(F)(F)F.c1cn(c[n+]1C)CCCCCC,32,1,430,32
293.0,0.1,0.158,Training,1-hexyl-3-methylimidazolium tetrafluoroborate,[B-](F)(F)(F)F.CCCCCCN1C=C[N+](=C1)C,C(CCCCC)n1c[n+](C)cc1.F[B-](F)(F)F,32,1,430,32
293.0,0.1,0.158,Training,1-hexyl-3-methylimidazolium tetrafluoroborate,[B-](F)(F)(F)F.CCCCCCN1C=C[N+](=C1)C,C(CCCCC)n1c[n+](cc1)C.F[B-](F)(F)F,32,1,430,32
293.0,0.1,0.158,Training,1-hexyl-3-methylimidazolium tetrafluoroborate,[B-](F)(F)(F)F.CCCCCCN1C=C[N+](=C1)C,C(CC)CCCn1cc[n+](c1)C.[B-](F)(F)(F)F,32,1,430,32
293.0,0.1,0.158,Training,1-hexyl-3-methylimidazolium tetrafluoroborate,[B-](F)(F)(F)F.CCCCCCN1C=C[N+](=C1)C,C(C)CCCCn1c[n+](cc1)C.F[B-](F)(F)F,32,1,430,32
293.0,0.1,0.158,Training,1-hexyl-3-methylimidazolium tetrafluoroborate,[B-](F)(F)(F)F.CCCCCCN1C=C[N+](=C1)C,C(CC)CCCn1c[n+](C)cc1.F[B-](F)(F)F,32,1,430,32
293.0,0.1,0.158,Training,1-hexyl-3-methylimidazolium tetrafluoroborate,[B-](F)(F)(F)F.CCCCCCN1C=C[N+](=C1)C,CCCCCCn1c[n+](C)cc1.F[B-](F)(F)F,32,1,430,32
293.0,0.1,0.158,Training,1-hexyl-3-methylimidazolium tetrafluoroborate,[B-](F)(F)(F)F.CCCCCCN1C=C[N+](=C1)C,F[B-](F)(F)F.c1n(CCCCCC)c[n+](C)c1,32,1,430,32
303.0,0.1,0.157,Training,1-hexyl-3-methylimidazolium tetrafluoroborate,[B-](F)(F)(F)F.CCCCCCN1C=C[N+](=C1)C,CCCCCCn1cc[n+](C)c1.F[B-](F)(F)F,32,1,431,32
303.0,0.1,0.157,Training,1-hexyl-3-methylimidazolium tetrafluoroborate,[B-](F)(F)(F)F.CCCCCCN1C=C[N+](=C1)C,[B-](F)(F)(F)F.[n+]1(ccn(CCCCCC)c1)C,32,1,431,32
303.0,0.1,0.157,Training,1-hexyl-3-methylimidazolium tetrafluoroborate,[B-](F)(F)(F)F.CCCCCCN1C=C[N+](=C1)C,F[B-](F)(F)F.c1n(CCCCCC)cc[n+]1C,32,1,431,32
303.0,0.1,0.157,Training,1-hexyl-3-methylimidazolium tetrafluoroborate,[B-](F)(F)(F)F.CCCCCCN1C=C[N+](=C1)C,F[B-](F)(F)F.c1c[n+](C)cn1CCCCCC,32,1,431,32
303.0,0.1,0.157,Training,1-hexyl-3-methylimidazolium tetrafluoroborate,[B-](F)(F)(F)F.CCCCCCN1C=C[N+](=C1)C,C(CCn1c[n+](C)cc1)CCC.F[B-](F)(F)F,32,1,431,32
303.0,0.1,0.157,Training,1-hexyl-3-methylimidazolium tetrafluoroborate,[B-](F)(F)(F)F.CCCCCCN1C=C[N+](=C1)C,F[B-](F)(F)F.c1n(cc[n+]1C)CCCCCC,32,1,431,32
303.0,0.1,0.157,Training,1-hexyl-3-methylimidazolium tetrafluoroborate,[B-](F)(F)(F)F.CCCCCCN1C=C[N+](=C1)C,F[B-](F)(F)F.[n+]1(cn(cc1)CCCCCC)C,32,1,431,32
303.0,0.1,0.157,Training,1-hexyl-3-methylimidazolium tetrafluoroborate,[B-](F)(F)(F)F.CCCCCCN1C=C[N+](=C1)C,CCCCCCn1c[n+](C)cc1.F[B-](F)(F)F,32,1,431,32
303.0,0.1,0.157,Training,1-hexyl-3-methylimidazolium tetrafluoroborate,[B-](F)(F)(F)F.CCCCCCN1C=C[N+](=C1)C,C(Cn1c[n+](cc1)C)CCCC.[B-](F)(F)(F)F,32,1,431,32
313.0,0.1,0.156,Training,1-hexyl-3-methylimidazolium tetrafluoroborate,[B-](F)(F)(F)F.CCCCCCN1C=C[N+](=C1)C,CCCCCCn1cc[n+](C)c1.F[B-](F)(F)F,32,1,432,32
313.0,0.1,0.156,Training,1-hexyl-3-methylimidazolium tetrafluoroborate,[B-](F)(F)(F)F.CCCCCCN1C=C[N+](=C1)C,C(Cn1cc[n+](c1)C)CCCC.F[B-](F)(F)F,32,1,432,32
313.0,0.1,0.156,Training,1-hexyl-3-methylimidazolium tetrafluoroborate,[B-](F)(F)(F)F.CCCCCCN1C=C[N+](=C1)C,C(CCCn1cc[n+](C)c1)CC.F[B-](F)(F)F,32,1,432,32
313.0,0.1,0.156,Training,1-hexyl-3-methylimidazolium tetrafluoroborate,[B-](F)(F)(F)F.CCCCCCN1C=C[N+](=C1)C,C[n+]1ccn(CCCCCC)c1.F[B-](F)(F)F,32,1,432,32
313.0,0.1,0.156,Training,1-hexyl-3-methylimidazolium tetrafluoroborate,[B-](F)(F)(F)F.CCCCCCN1C=C[N+](=C1)C,F[B-](F)(F)F.c1n(CCCCCC)cc[n+]1C,32,1,432,32
313.0,0.1,0.156,Training,1-hexyl-3-methylimidazolium tetrafluoroborate,[B-](F)(F)(F)F.CCCCCCN1C=C[N+](=C1)C,C(CCn1cc[n+](c1)C)CCC.F[B-](F)(F)F,32,1,432,32
313.0,0.1,0.156,Training,1-hexyl-3-methylimidazolium tetrafluoroborate,[B-](F)(F)(F)F.CCCCCCN1C=C[N+](=C1)C,F[B-](F)(F)F.[n+]1(C)ccn(CCCCCC)c1,32,1,432,32
313.0,0.1,0.156,Training,1-hexyl-3-methylimidazolium tetrafluoroborate,[B-](F)(F)(F)F.CCCCCCN1C=C[N+](=C1)C,F[B-](F)(F)F.c1cn(c[n+]1C)CCCCCC,32,1,432,32
323.0,0.1,0.155,Training,1-hexyl-3-methylimidazolium tetrafluoroborate,[B-](F)(F)(F)F.CCCCCCN1C=C[N+](=C1)C,CCCCCCn1cc[n+](C)c1.F[B-](F)(F)F,32,1,433,32
323.0,0.1,0.155,Training,1-hexyl-3-methylimidazolium tetrafluoroborate,[B-](F)(F)(F)F.CCCCCCN1C=C[N+](=C1)C,C(CCCCC)n1c[n+](C)cc1.F[B-](F)(F)F,32,1,433,32
323.0,0.1,0.155,Training,1-hexyl-3-methylimidazolium tetrafluoroborate,[B-](F)(F)(F)F.CCCCCCN1C=C[N+](=C1)C,C(C)CCCCn1c[n+](cc1)C.F[B-](F)(F)F,32,1,433,32
323.0,0.1,0.155,Training,1-hexyl-3-methylimidazolium tetrafluoroborate,[B-](F)(F)(F)F.CCCCCCN1C=C[N+](=C1)C,C(CC)CCCn1c[n+](cc1)C.F[B-](F)(F)F,32,1,433,32
323.0,0.1,0.155,Training,1-hexyl-3-methylimidazolium tetrafluoroborate,[B-](F)(F)(F)F.CCCCCCN1C=C[N+](=C1)C,F[B-](F)(F)F.[n+]1(C)cn(cc1)CCCCCC,32,1,433,32
323.0,0.1,0.155,Training,1-hexyl-3-methylimidazolium tetrafluoroborate,[B-](F)(F)(F)F.CCCCCCN1C=C[N+](=C1)C,F[B-](F)(F)F.n1(c[n+](C)cc1)CCCCCC,32,1,433,32
323.0,0.1,0.155,Training,1-hexyl-3-methylimidazolium tetrafluoroborate,[B-](F)(F)(F)F.CCCCCCN1C=C[N+](=C1)C,C(CCCn1c[n+](C)cc1)CC.F[B-](F)(F)F,32,1,433,32
323.0,0.1,0.155,Training,1-hexyl-3-methylimidazolium tetrafluoroborate,[B-](F)(F)(F)F.CCCCCCN1C=C[N+](=C1)C,C(C)CCCCn1c[n+](C)cc1.F[B-](F)(F)F,32,1,433,32
323.0,0.1,0.155,Training,1-hexyl-3-methylimidazolium tetrafluoroborate,[B-](F)(F)(F)F.CCCCCCN1C=C[N+](=C1)C,F[B-](F)(F)F.n1(CCCCCC)c[n+](cc1)C,32,1,433,32
323.0,0.1,0.155,Training,1-hexyl-3-methylimidazolium tetrafluoroborate,[B-](F)(F)(F)F.CCCCCCN1C=C[N+](=C1)C,C(CC)CCCn1cc[n+](c1)C.F[B-](F)(F)F,32,1,433,32
333.0,0.1,0.153,Training,1-hexyl-3-methylimidazolium tetrafluoroborate,[B-](F)(F)(F)F.CCCCCCN1C=C[N+](=C1)C,CCCCCCn1cc[n+](C)c1.F[B-](F)(F)F,32,1,434,32
333.0,0.1,0.153,Training,1-hexyl-3-methylimidazolium tetrafluoroborate,[B-](F)(F)(F)F.CCCCCCN1C=C[N+](=C1)C,C(CCC)CCn1cc[n+](c1)C.F[B-](F)(F)F,32,1,434,32
333.0,0.1,0.153,Training,1-hexyl-3-methylimidazolium tetrafluoroborate,[B-](F)(F)(F)F.CCCCCCN1C=C[N+](=C1)C,F[B-](F)(F)F.c1cn(CCCCCC)c[n+]1C,32,1,434,32
333.0,0.1,0.153,Training,1-hexyl-3-methylimidazolium tetrafluoroborate,[B-](F)(F)(F)F.CCCCCCN1C=C[N+](=C1)C,CCCCCCn1cc[n+](c1)C.[B-](F)(F)(F)F,32,1,434,32
333.0,0.1,0.153,Training,1-hexyl-3-methylimidazolium tetrafluoroborate,[B-](F)(F)(F)F.CCCCCCN1C=C[N+](=C1)C,C(CCn1cc[n+](C)c1)CCC.F[B-](F)(F)F,32,1,434,32
333.0,0.1,0.153,Training,1-hexyl-3-methylimidazolium tetrafluoroborate,[B-](F)(F)(F)F.CCCCCCN1C=C[N+](=C1)C,[B-](F)(F)(F)F.c1[n+](ccn1CCCCCC)C,32,1,434,32
333.0,0.1,0.153,Training,1-hexyl-3-methylimidazolium tetrafluoroborate,[B-](F)(F)(F)F.CCCCCCN1C=C[N+](=C1)C,C(C)CCCCn1cc[n+](C)c1.F[B-](F)(F)F,32,1,434,32
333.0,0.1,0.153,Training,1-hexyl-3-methylimidazolium tetrafluoroborate,[B-](F)(F)(F)F.CCCCCCN1C=C[N+](=C1)C,F[B-](F)(F)F.c1[n+](ccn1CCCCCC)C,32,1,434,32
333.0,0.1,0.153,Training,1-hexyl-3-methylimidazolium tetrafluoroborate,[B-](F)(F)(F)F.CCCCCCN1C=C[N+](=C1)C,F[B-](F)(F)F.n1(CCCCCC)cc[n+](C)c1,32,1,434,32
333.0,0.1,0.153,Training,1-hexyl-3-methylimidazolium tetrafluoroborate,[B-](F)(F)(F)F.CCCCCCN1C=C[N+](=C1)C,F[B-](F)(F)F.c1n(CCCCCC)cc[n+]1C,32,1,434,32
343.0,0.1,0.152,Training,1-hexyl-3-methylimidazolium tetrafluoroborate,[B-](F)(F)(F)F.CCCCCCN1C=C[N+](=C1)C,CCCCCCn1cc[n+](C)c1.F[B-](F)(F)F,32,1,435,32
343.0,0.1,0.152,Training,1-hexyl-3-methylimidazolium tetrafluoroborate,[B-](F)(F)(F)F.CCCCCCN1C=C[N+](=C1)C,C(Cn1cc[n+](C)c1)CCCC.F[B-](F)(F)F,32,1,435,32
343.0,0.1,0.152,Training,1-hexyl-3-methylimidazolium tetrafluoroborate,[B-](F)(F)(F)F.CCCCCCN1C=C[N+](=C1)C,C(Cn1cc[n+](C)c1)CCCC.[B-](F)(F)(F)F,32,1,435,32
343.0,0.1,0.152,Training,1-hexyl-3-methylimidazolium tetrafluoroborate,[B-](F)(F)(F)F.CCCCCCN1C=C[N+](=C1)C,F[B-](F)(F)F.n1(CCCCCC)c[n+](cc1)C,32,1,435,32
343.0,0.1,0.152,Training,1-hexyl-3-methylimidazolium tetrafluoroborate,[B-](F)(F)(F)F.CCCCCCN1C=C[N+](=C1)C,CCCCCCn1c[n+](cc1)C.F[B-](F)(F)F,32,1,435,32
343.0,0.1,0.152,Training,1-hexyl-3-methylimidazolium tetrafluoroborate,[B-](F)(F)(F)F.CCCCCCN1C=C[N+](=C1)C,[B-](F)(F)(F)F.c1c[n+](C)cn1CCCCCC,32,1,435,32
343.0,0.1,0.152,Training,1-hexyl-3-methylimidazolium tetrafluoroborate,[B-](F)(F)(F)F.CCCCCCN1C=C[N+](=C1)C,C(CCCCn1cc[n+](c1)C)C.F[B-](F)(F)F,32,1,435,32
343.0,0.1,0.152,Training,1-hexyl-3-methylimidazolium tetrafluoroborate,[B-](F)(F)(F)F.CCCCCCN1C=C[N+](=C1)C,C[n+]1cn(cc1)CCCCCC.F[B-](F)(F)F,32,1,435,32
343.0,0.1,0.152,Training,1-hexyl-3-methylimidazolium tetrafluoroborate,[B-](F)(F)(F)F.CCCCCCN1C=C[N+](=C1)C,C(CCC)CCn1c[n+](cc1)C.F[B-](F)(F)F,32,1,435,32
343.0,0.1,0.152,Training,1-hexyl-3-methylimidazolium tetrafluoroborate,[B-](F)(F)(F)F.CCCCCCN1C=C[N+](=C1)C,[B-](F)(F)(F)F.[n+]1(C)cn(cc1)CCCCCC,32,1,435,32
353.0,0.1,0.151,Testing,1-hexyl-3-methylimidazolium tetrafluoroborate,[B-](F)(F)(F)F.CCCCCCN1C=C[N+](=C1)C,CCCCCCn1cc[n+](C)c1.F[B-](F)(F)F,32,1,436,32
353.0,0.1,0.151,Testing,1-hexyl-3-methylimidazolium tetrafluoroborate,[B-](F)(F)(F)F.CCCCCCN1C=C[N+](=C1)C,C(C)CCCCn1cc[n+](c1)C.F[B-](F)(F)F,32,1,436,32
353.0,0.1,0.151,Testing,1-hexyl-3-methylimidazolium tetrafluoroborate,[B-](F)(F)(F)F.CCCCCCN1C=C[N+](=C1)C,C(CCn1cc[n+](c1)C)CCC.F[B-](F)(F)F,32,1,436,32
353.0,0.1,0.151,Testing,1-hexyl-3-methylimidazolium tetrafluoroborate,[B-](F)(F)(F)F.CCCCCCN1C=C[N+](=C1)C,F[B-](F)(F)F.[n+]1(C)cn(cc1)CCCCCC,32,1,436,32
353.0,0.1,0.151,Testing,1-hexyl-3-methylimidazolium tetrafluoroborate,[B-](F)(F)(F)F.CCCCCCN1C=C[N+](=C1)C,F[B-](F)(F)F.c1n(CCCCCC)cc[n+]1C,32,1,436,32
353.0,0.1,0.151,Testing,1-hexyl-3-methylimidazolium tetrafluoroborate,[B-](F)(F)(F)F.CCCCCCN1C=C[N+](=C1)C,F[B-](F)(F)F.[n+]1(C)ccn(CCCCCC)c1,32,1,436,32
353.0,0.1,0.151,Testing,1-hexyl-3-methylimidazolium tetrafluoroborate,[B-](F)(F)(F)F.CCCCCCN1C=C[N+](=C1)C,CCCCCCn1cc[n+](c1)C.F[B-](F)(F)F,32,1,436,32
353.0,0.1,0.151,Testing,1-hexyl-3-methylimidazolium tetrafluoroborate,[B-](F)(F)(F)F.CCCCCCN1C=C[N+](=C1)C,F[B-](F)(F)F.c1[n+](C)ccn1CCCCCC,32,1,436,32
353.0,0.1,0.151,Testing,1-hexyl-3-methylimidazolium tetrafluoroborate,[B-](F)(F)(F)F.CCCCCCN1C=C[N+](=C1)C,F[B-](F)(F)F.[n+]1(cn(cc1)CCCCCC)C,32,1,436,32
293.0,0.1,0.118,Training,1-butyl-1-methyl-pyrrolidinium bis(trifluoromethylsulfonyl)imide,CCCC[N+]1(CCCC1)C.C(F)(F)(F)S(=O)(=O)[N-]S(=O)(=O)C(F)(F)F,CCCC[N+]1(C)CCCC1.O=S(=O)([N-]S(=O)(=O)C(F)(F)F)C(F)(F)F,2,1,437,2
293.0,0.1,0.118,Training,1-butyl-1-methyl-pyrrolidinium bis(trifluoromethylsulfonyl)imide,CCCC[N+]1(CCCC1)C.C(F)(F)(F)S(=O)(=O)[N-]S(=O)(=O)C(F)(F)F,C1CC[N+](CCCC)(C1)C.O=S(=O)(C(F)(F)F)[N-]S(=O)(C(F)(F)F)=O,2,1,437,2
293.0,0.1,0.118,Training,1-butyl-1-methyl-pyrrolidinium bis(trifluoromethylsulfonyl)imide,CCCC[N+]1(CCCC1)C.C(F)(F)(F)S(=O)(=O)[N-]S(=O)(=O)C(F)(F)F,C1CCC[N+]1(CCCC)C.S(=O)(=O)([N-]S(C(F)(F)F)(=O)=O)C(F)(F)F,2,1,437,2
293.0,0.1,0.118,Training,1-butyl-1-methyl-pyrrolidinium bis(trifluoromethylsulfonyl)imide,CCCC[N+]1(CCCC1)C.C(F)(F)(F)S(=O)(=O)[N-]S(=O)(=O)C(F)(F)F,S([N-]S(=O)(C(F)(F)F)=O)(C(F)(F)F)(=O)=O.[N+]1(C)(CCCC1)CCCC,2,1,437,2
293.0,0.1,0.118,Training,1-butyl-1-methyl-pyrrolidinium bis(trifluoromethylsulfonyl)imide,CCCC[N+]1(CCCC1)C.C(F)(F)(F)S(=O)(=O)[N-]S(=O)(=O)C(F)(F)F,CCCC[N+]1(CCCC1)C.FC(S(=O)(=O)[N-]S(C(F)(F)F)(=O)=O)(F)F,2,1,437,2
293.0,0.1,0.118,Training,1-butyl-1-methyl-pyrrolidinium bis(trifluoromethylsulfonyl)imide,CCCC[N+]1(CCCC1)C.C(F)(F)(F)S(=O)(=O)[N-]S(=O)(=O)C(F)(F)F,O=S(C(F)(F)F)(=O)[N-]S(=O)(=O)C(F)(F)F.[N+]1(CCCC)(C)CCCC1,2,1,437,2
293.0,0.1,0.118,Training,1-butyl-1-methyl-pyrrolidinium bis(trifluoromethylsulfonyl)imide,CCCC[N+]1(CCCC1)C.C(F)(F)(F)S(=O)(=O)[N-]S(=O)(=O)C(F)(F)F,CCCC[N+]1(C)CCCC1.FC(F)(S(=O)(=O)[N-]S(C(F)(F)F)(=O)=O)F,2,1,437,2
293.0,0.1,0.118,Training,1-butyl-1-methyl-pyrrolidinium bis(trifluoromethylsulfonyl)imide,CCCC[N+]1(CCCC1)C.C(F)(F)(F)S(=O)(=O)[N-]S(=O)(=O)C(F)(F)F,C(CC)C[N+]1(C)CCCC1.O=S(=O)(C(F)(F)F)[N-]S(=O)(=O)C(F)(F)F,2,1,437,2
293.0,0.1,0.118,Training,1-butyl-1-methyl-pyrrolidinium bis(trifluoromethylsulfonyl)imide,CCCC[N+]1(CCCC1)C.C(F)(F)(F)S(=O)(=O)[N-]S(=O)(=O)C(F)(F)F,C(F)(F)(S(=O)([N-]S(C(F)(F)F)(=O)=O)=O)F.C1[N+](C)(CCCC)CCC1,2,1,437,2
293.0,0.1,0.118,Training,1-butyl-1-methyl-pyrrolidinium bis(trifluoromethylsulfonyl)imide,CCCC[N+]1(CCCC1)C.C(F)(F)(F)S(=O)(=O)[N-]S(=O)(=O)C(F)(F)F,C([N+]1(C)CCCC1)CCC.S(C(F)(F)F)(=O)(=O)[N-]S(C(F)(F)F)(=O)=O,2,1,437,2
303.0,0.1,0.118,Training,1-butyl-1-methyl-pyrrolidinium bis(trifluoromethylsulfonyl)imide,CCCC[N+]1(CCCC1)C.C(F)(F)(F)S(=O)(=O)[N-]S(=O)(=O)C(F)(F)F,CCCC[N+]1(C)CCCC1.O=S(=O)([N-]S(=O)(=O)C(F)(F)F)C(F)(F)F,2,1,438,2
303.0,0.1,0.118,Training,1-butyl-1-methyl-pyrrolidinium bis(trifluoromethylsulfonyl)imide,CCCC[N+]1(CCCC1)C.C(F)(F)(F)S(=O)(=O)[N-]S(=O)(=O)C(F)(F)F,C(CCC)[N+]1(CCCC1)C.S(=O)(C(F)(F)F)([N-]S(C(F)(F)F)(=O)=O)=O,2,1,438,2
303.0,0.1,0.118,Training,1-butyl-1-methyl-pyrrolidinium bis(trifluoromethylsulfonyl)imide,CCCC[N+]1(CCCC1)C.C(F)(F)(F)S(=O)(=O)[N-]S(=O)(=O)C(F)(F)F,CCCC[N+]1(C)CCCC1.FC(F)(S(=O)([N-]S(C(F)(F)F)(=O)=O)=O)F,2,1,438,2
303.0,0.1,0.118,Training,1-butyl-1-methyl-pyrrolidinium bis(trifluoromethylsulfonyl)imide,CCCC[N+]1(CCCC1)C.C(F)(F)(F)S(=O)(=O)[N-]S(=O)(=O)C(F)(F)F,C(CC)C[N+]1(C)CCCC1.O=S([N-]S(C(F)(F)F)(=O)=O)(C(F)(F)F)=O,2,1,438,2
303.0,0.1,0.118,Training,1-butyl-1-methyl-pyrrolidinium bis(trifluoromethylsulfonyl)imide,CCCC[N+]1(CCCC1)C.C(F)(F)(F)S(=O)(=O)[N-]S(=O)(=O)C(F)(F)F,C[N+]1(CCCC)CCCC1.S([N-]S(C(F)(F)F)(=O)=O)(=O)(=O)C(F)(F)F,2,1,438,2
303.0,0.1,0.118,Training,1-butyl-1-methyl-pyrrolidinium bis(trifluoromethylsulfonyl)imide,CCCC[N+]1(CCCC1)C.C(F)(F)(F)S(=O)(=O)[N-]S(=O)(=O)C(F)(F)F,C(CC)C[N+]1(C)CCCC1.[N-](S(C(F)(F)F)(=O)=O)S(=O)(C(F)(F)F)=O,2,1,438,2
303.0,0.1,0.118,Training,1-butyl-1-methyl-pyrrolidinium bis(trifluoromethylsulfonyl)imide,CCCC[N+]1(CCCC1)C.C(F)(F)(F)S(=O)(=O)[N-]S(=O)(=O)C(F)(F)F,C(C[N+]1(C)CCCC1)CC.O=S(=O)([N-]S(=O)(=O)C(F)(F)F)C(F)(F)F,2,1,438,2
303.0,0.1,0.118,Training,1-butyl-1-methyl-pyrrolidinium bis(trifluoromethylsulfonyl)imide,CCCC[N+]1(CCCC1)C.C(F)(F)(F)S(=O)(=O)[N-]S(=O)(=O)C(F)(F)F,C(CC[N+]1(C)CCCC1)C.O=S([N-]S(C(F)(F)F)(=O)=O)(C(F)(F)F)=O,2,1,438,2
303.0,0.1,0.118,Training,1-butyl-1-methyl-pyrrolidinium bis(trifluoromethylsulfonyl)imide,CCCC[N+]1(CCCC1)C.C(F)(F)(F)S(=O)(=O)[N-]S(=O)(=O)C(F)(F)F,C(F)(S([N-]S(=O)(C(F)(F)F)=O)(=O)=O)(F)F.[N+]1(CCCC)(C)CCCC1,2,1,438,2
303.0,0.1,0.118,Training,1-butyl-1-methyl-pyrrolidinium bis(trifluoromethylsulfonyl)imide,CCCC[N+]1(CCCC1)C.C(F)(F)(F)S(=O)(=O)[N-]S(=O)(=O)C(F)(F)F,CCCC[N+]1(C)CCCC1.S(=O)([N-]S(=O)(C(F)(F)F)=O)(=O)C(F)(F)F,2,1,438,2
313.0,0.1,0.118,Training,1-butyl-1-methyl-pyrrolidinium bis(trifluoromethylsulfonyl)imide,CCCC[N+]1(CCCC1)C.C(F)(F)(F)S(=O)(=O)[N-]S(=O)(=O)C(F)(F)F,CCCC[N+]1(C)CCCC1.O=S(=O)([N-]S(=O)(=O)C(F)(F)F)C(F)(F)F,2,1,439,2