T/K,P/MPa,TC/W m-1 K-1,Data type,Name,SMILES,Normalized SMILES,index,P/bar,RANDOM,IL
318.32,0.1,0.1174,Testing,1-propyl-1-methylpyrrolidinium bis(trifluoromethylsulfonyl)imide,CCC[N+]1(CCCC1)C.C(F)(F)(F)S(=O)(=O)[N-]S(=O)(=O)C(F)(F)F,C1CC[N+](C1)(CCC)C.FC(S(=O)([N-]S(C(F)(F)F)(=O)=O)=O)(F)F,40,1,530,40
318.32,0.1,0.1174,Testing,1-propyl-1-methylpyrrolidinium bis(trifluoromethylsulfonyl)imide,CCC[N+]1(CCCC1)C.C(F)(F)(F)S(=O)(=O)[N-]S(=O)(=O)C(F)(F)F,O=S(C(F)(F)F)(=O)[N-]S(C(F)(F)F)(=O)=O.[N+]1(CCC)(CCCC1)C,40,1,530,40
318.32,0.1,0.1174,Testing,1-propyl-1-methylpyrrolidinium bis(trifluoromethylsulfonyl)imide,CCC[N+]1(CCCC1)C.C(F)(F)(F)S(=O)(=O)[N-]S(=O)(=O)C(F)(F)F,C(C)C[N+]1(C)CCCC1.S([N-]S(=O)(C(F)(F)F)=O)(=O)(C(F)(F)F)=O,40,1,530,40
318.32,0.1,0.1174,Testing,1-propyl-1-methylpyrrolidinium bis(trifluoromethylsulfonyl)imide,CCC[N+]1(CCCC1)C.C(F)(F)(F)S(=O)(=O)[N-]S(=O)(=O)C(F)(F)F,C[N+]1(CCC)CCCC1.O=S([N-]S(=O)(C(F)(F)F)=O)(=O)C(F)(F)F,40,1,530,40
326.71,0.1,0.1167,Training,1-propyl-1-methylpyrrolidinium bis(trifluoromethylsulfonyl)imide,CCC[N+]1(CCCC1)C.C(F)(F)(F)S(=O)(=O)[N-]S(=O)(=O)C(F)(F)F,CCC[N+]1(C)CCCC1.O=S(=O)([N-]S(=O)(=O)C(F)(F)F)C(F)(F)F,40,1,531,40
326.71,0.1,0.1167,Training,1-propyl-1-methylpyrrolidinium bis(trifluoromethylsulfonyl)imide,CCC[N+]1(CCCC1)C.C(F)(F)(F)S(=O)(=O)[N-]S(=O)(=O)C(F)(F)F,C(S([N-]S(=O)(=O)C(F)(F)F)(=O)=O)(F)(F)F.C1[N+](C)(CCC1)CCC,40,1,531,40
326.71,0.1,0.1167,Training,1-propyl-1-methylpyrrolidinium bis(trifluoromethylsulfonyl)imide,CCC[N+]1(CCCC1)C.C(F)(F)(F)S(=O)(=O)[N-]S(=O)(=O)C(F)(F)F,C1CC[N+](C1)(CCC)C.S([N-]S(=O)(C(F)(F)F)=O)(=O)(=O)C(F)(F)F,40,1,531,40
326.71,0.1,0.1167,Training,1-propyl-1-methylpyrrolidinium bis(trifluoromethylsulfonyl)imide,CCC[N+]1(CCCC1)C.C(F)(F)(F)S(=O)(=O)[N-]S(=O)(=O)C(F)(F)F,FC(F)(S(=O)(=O)[N-]S(=O)(=O)C(F)(F)F)F.[N+]1(CCC)(C)CCCC1,40,1,531,40
326.71,0.1,0.1167,Training,1-propyl-1-methylpyrrolidinium bis(trifluoromethylsulfonyl)imide,CCC[N+]1(CCCC1)C.C(F)(F)(F)S(=O)(=O)[N-]S(=O)(=O)C(F)(F)F,S(=O)(C(F)(F)F)([N-]S(=O)(=O)C(F)(F)F)=O.[N+]1(C)(CCCC1)CCC,40,1,531,40
326.71,0.1,0.1167,Training,1-propyl-1-methylpyrrolidinium bis(trifluoromethylsulfonyl)imide,CCC[N+]1(CCCC1)C.C(F)(F)(F)S(=O)(=O)[N-]S(=O)(=O)C(F)(F)F,C(C)C[N+]1(CCCC1)C.FC(F)(S(=O)([N-]S(=O)(C(F)(F)F)=O)=O)F,40,1,531,40
326.71,0.1,0.1167,Training,1-propyl-1-methylpyrrolidinium bis(trifluoromethylsulfonyl)imide,CCC[N+]1(CCCC1)C.C(F)(F)(F)S(=O)(=O)[N-]S(=O)(=O)C(F)(F)F,FC(S(=O)(=O)[N-]S(C(F)(F)F)(=O)=O)(F)F.[N+]1(CCC)(CCCC1)C,40,1,531,40
326.71,0.1,0.1167,Training,1-propyl-1-methylpyrrolidinium bis(trifluoromethylsulfonyl)imide,CCC[N+]1(CCCC1)C.C(F)(F)(F)S(=O)(=O)[N-]S(=O)(=O)C(F)(F)F,C(F)(S(=O)([N-]S(=O)(C(F)(F)F)=O)=O)(F)F.C1CC[N+](CCC)(C1)C,40,1,531,40
326.71,0.1,0.1167,Training,1-propyl-1-methylpyrrolidinium bis(trifluoromethylsulfonyl)imide,CCC[N+]1(CCCC1)C.C(F)(F)(F)S(=O)(=O)[N-]S(=O)(=O)C(F)(F)F,CCC[N+]1(CCCC1)C.FC(S(=O)([N-]S(=O)(=O)C(F)(F)F)=O)(F)F,40,1,531,40
326.71,0.1,0.1167,Training,1-propyl-1-methylpyrrolidinium bis(trifluoromethylsulfonyl)imide,CCC[N+]1(CCCC1)C.C(F)(F)(F)S(=O)(=O)[N-]S(=O)(=O)C(F)(F)F,C1CCC[N+]1(CCC)C.O=S(C(F)(F)F)([N-]S(C(F)(F)F)(=O)=O)=O,40,1,531,40
340.17,0.1,0.1178,Training,1-propyl-1-methylpyrrolidinium bis(trifluoromethylsulfonyl)imide,CCC[N+]1(CCCC1)C.C(F)(F)(F)S(=O)(=O)[N-]S(=O)(=O)C(F)(F)F,CCC[N+]1(C)CCCC1.O=S(=O)([N-]S(=O)(=O)C(F)(F)F)C(F)(F)F,40,1,532,40
340.17,0.1,0.1178,Training,1-propyl-1-methylpyrrolidinium bis(trifluoromethylsulfonyl)imide,CCC[N+]1(CCCC1)C.C(F)(F)(F)S(=O)(=O)[N-]S(=O)(=O)C(F)(F)F,C1[N+](C)(CCC1)CCC.FC(S([N-]S(=O)(=O)C(F)(F)F)(=O)=O)(F)F,40,1,532,40
340.17,0.1,0.1178,Training,1-propyl-1-methylpyrrolidinium bis(trifluoromethylsulfonyl)imide,CCC[N+]1(CCCC1)C.C(F)(F)(F)S(=O)(=O)[N-]S(=O)(=O)C(F)(F)F,CCC[N+]1(CCCC1)C.S(=O)(=O)([N-]S(C(F)(F)F)(=O)=O)C(F)(F)F,40,1,532,40
340.17,0.1,0.1178,Training,1-propyl-1-methylpyrrolidinium bis(trifluoromethylsulfonyl)imide,CCC[N+]1(CCCC1)C.C(F)(F)(F)S(=O)(=O)[N-]S(=O)(=O)C(F)(F)F,CCC[N+]1(CCCC1)C.O=S(=O)(C(F)(F)F)[N-]S(=O)(C(F)(F)F)=O,40,1,532,40
340.17,0.1,0.1178,Training,1-propyl-1-methylpyrrolidinium bis(trifluoromethylsulfonyl)imide,CCC[N+]1(CCCC1)C.C(F)(F)(F)S(=O)(=O)[N-]S(=O)(=O)C(F)(F)F,C1[N+](CCC1)(CCC)C.O=S(=O)(C(F)(F)F)[N-]S(=O)(C(F)(F)F)=O,40,1,532,40
340.17,0.1,0.1178,Training,1-propyl-1-methylpyrrolidinium bis(trifluoromethylsulfonyl)imide,CCC[N+]1(CCCC1)C.C(F)(F)(F)S(=O)(=O)[N-]S(=O)(=O)C(F)(F)F,C1C[N+](C)(CC1)CCC.O=S([N-]S(C(F)(F)F)(=O)=O)(=O)C(F)(F)F,40,1,532,40
340.17,0.1,0.1178,Training,1-propyl-1-methylpyrrolidinium bis(trifluoromethylsulfonyl)imide,CCC[N+]1(CCCC1)C.C(F)(F)(F)S(=O)(=O)[N-]S(=O)(=O)C(F)(F)F,CCC[N+]1(C)CCCC1.S(C(F)(F)F)(=O)(=O)[N-]S(C(F)(F)F)(=O)=O,40,1,532,40
340.17,0.1,0.1178,Training,1-propyl-1-methylpyrrolidinium bis(trifluoromethylsulfonyl)imide,CCC[N+]1(CCCC1)C.C(F)(F)(F)S(=O)(=O)[N-]S(=O)(=O)C(F)(F)F,C(C[N+]1(C)CCCC1)C.O=S(C(F)(F)F)(=O)[N-]S(C(F)(F)F)(=O)=O,40,1,532,40
340.17,0.1,0.1178,Training,1-propyl-1-methylpyrrolidinium bis(trifluoromethylsulfonyl)imide,CCC[N+]1(CCCC1)C.C(F)(F)(F)S(=O)(=O)[N-]S(=O)(=O)C(F)(F)F,C(C)C[N+]1(C)CCCC1.FC(F)(S(=O)(=O)[N-]S(=O)(=O)C(F)(F)F)F,40,1,532,40
340.17,0.1,0.1178,Training,1-propyl-1-methylpyrrolidinium bis(trifluoromethylsulfonyl)imide,CCC[N+]1(CCCC1)C.C(F)(F)(F)S(=O)(=O)[N-]S(=O)(=O)C(F)(F)F,C(C[N+]1(C)CCCC1)C.[N-](S(=O)(C(F)(F)F)=O)S(=O)(C(F)(F)F)=O,40,1,532,40
351.81,0.1,0.1166,Training,1-propyl-1-methylpyrrolidinium bis(trifluoromethylsulfonyl)imide,CCC[N+]1(CCCC1)C.C(F)(F)(F)S(=O)(=O)[N-]S(=O)(=O)C(F)(F)F,CCC[N+]1(C)CCCC1.O=S(=O)([N-]S(=O)(=O)C(F)(F)F)C(F)(F)F,40,1,533,40
351.81,0.1,0.1166,Training,1-propyl-1-methylpyrrolidinium bis(trifluoromethylsulfonyl)imide,CCC[N+]1(CCCC1)C.C(F)(F)(F)S(=O)(=O)[N-]S(=O)(=O)C(F)(F)F,C1CCC[N+]1(C)CCC.S(C(F)(F)F)(=O)([N-]S(=O)(=O)C(F)(F)F)=O,40,1,533,40
351.81,0.1,0.1166,Training,1-propyl-1-methylpyrrolidinium bis(trifluoromethylsulfonyl)imide,CCC[N+]1(CCCC1)C.C(F)(F)(F)S(=O)(=O)[N-]S(=O)(=O)C(F)(F)F,C1C[N+](CC1)(CCC)C.FC(F)(F)S([N-]S(=O)(C(F)(F)F)=O)(=O)=O,40,1,533,40
351.81,0.1,0.1166,Training,1-propyl-1-methylpyrrolidinium bis(trifluoromethylsulfonyl)imide,CCC[N+]1(CCCC1)C.C(F)(F)(F)S(=O)(=O)[N-]S(=O)(=O)C(F)(F)F,C(C[N+]1(C)CCCC1)C.O=S(C(F)(F)F)([N-]S(=O)(=O)C(F)(F)F)=O,40,1,533,40
351.81,0.1,0.1166,Training,1-propyl-1-methylpyrrolidinium bis(trifluoromethylsulfonyl)imide,CCC[N+]1(CCCC1)C.C(F)(F)(F)S(=O)(=O)[N-]S(=O)(=O)C(F)(F)F,C1[N+](CCC1)(C)CCC.FC(F)(F)S([N-]S(C(F)(F)F)(=O)=O)(=O)=O,40,1,533,40
351.81,0.1,0.1166,Training,1-propyl-1-methylpyrrolidinium bis(trifluoromethylsulfonyl)imide,CCC[N+]1(CCCC1)C.C(F)(F)(F)S(=O)(=O)[N-]S(=O)(=O)C(F)(F)F,C1CCC[N+]1(CCC)C.S(=O)(=O)(C(F)(F)F)[N-]S(=O)(C(F)(F)F)=O,40,1,533,40
351.81,0.1,0.1166,Training,1-propyl-1-methylpyrrolidinium bis(trifluoromethylsulfonyl)imide,CCC[N+]1(CCCC1)C.C(F)(F)(F)S(=O)(=O)[N-]S(=O)(=O)C(F)(F)F,CCC[N+]1(C)CCCC1.FC(F)(F)S([N-]S(C(F)(F)F)(=O)=O)(=O)=O,40,1,533,40
351.81,0.1,0.1166,Training,1-propyl-1-methylpyrrolidinium bis(trifluoromethylsulfonyl)imide,CCC[N+]1(CCCC1)C.C(F)(F)(F)S(=O)(=O)[N-]S(=O)(=O)C(F)(F)F,CCC[N+]1(CCCC1)C.FC(F)(F)S([N-]S(=O)(=O)C(F)(F)F)(=O)=O,40,1,533,40
351.81,0.1,0.1166,Training,1-propyl-1-methylpyrrolidinium bis(trifluoromethylsulfonyl)imide,CCC[N+]1(CCCC1)C.C(F)(F)(F)S(=O)(=O)[N-]S(=O)(=O)C(F)(F)F,C(C[N+]1(C)CCCC1)C.O=S([N-]S(=O)(C(F)(F)F)=O)(C(F)(F)F)=O,40,1,533,40
351.81,0.1,0.1166,Training,1-propyl-1-methylpyrrolidinium bis(trifluoromethylsulfonyl)imide,CCC[N+]1(CCCC1)C.C(F)(F)(F)S(=O)(=O)[N-]S(=O)(=O)C(F)(F)F,FC(F)(S(=O)(=O)[N-]S(C(F)(F)F)(=O)=O)F.[N+]1(CCCC1)(C)CCC,40,1,533,40
354.65,0.1,0.1172,Training,1-propyl-1-methylpyrrolidinium bis(trifluoromethylsulfonyl)imide,CCC[N+]1(CCCC1)C.C(F)(F)(F)S(=O)(=O)[N-]S(=O)(=O)C(F)(F)F,CCC[N+]1(C)CCCC1.O=S(=O)([N-]S(=O)(=O)C(F)(F)F)C(F)(F)F,40,1,534,40
354.65,0.1,0.1172,Training,1-propyl-1-methylpyrrolidinium bis(trifluoromethylsulfonyl)imide,CCC[N+]1(CCCC1)C.C(F)(F)(F)S(=O)(=O)[N-]S(=O)(=O)C(F)(F)F,C(CC)[N+]1(CCCC1)C.C(S(=O)(=O)[N-]S(=O)(=O)C(F)(F)F)(F)(F)F,40,1,534,40
354.65,0.1,0.1172,Training,1-propyl-1-methylpyrrolidinium bis(trifluoromethylsulfonyl)imide,CCC[N+]1(CCCC1)C.C(F)(F)(F)S(=O)(=O)[N-]S(=O)(=O)C(F)(F)F,C1C[N+](CC1)(CCC)C.O=S([N-]S(C(F)(F)F)(=O)=O)(=O)C(F)(F)F,40,1,534,40
354.65,0.1,0.1172,Training,1-propyl-1-methylpyrrolidinium bis(trifluoromethylsulfonyl)imide,CCC[N+]1(CCCC1)C.C(F)(F)(F)S(=O)(=O)[N-]S(=O)(=O)C(F)(F)F,C1[N+](C)(CCC)CCC1.FC(S([N-]S(C(F)(F)F)(=O)=O)(=O)=O)(F)F,40,1,534,40
354.65,0.1,0.1172,Training,1-propyl-1-methylpyrrolidinium bis(trifluoromethylsulfonyl)imide,CCC[N+]1(CCCC1)C.C(F)(F)(F)S(=O)(=O)[N-]S(=O)(=O)C(F)(F)F,C1CC[N+](C1)(CCC)C.FC(F)(S(=O)([N-]S(=O)(C(F)(F)F)=O)=O)F,40,1,534,40
354.65,0.1,0.1172,Training,1-propyl-1-methylpyrrolidinium bis(trifluoromethylsulfonyl)imide,CCC[N+]1(CCCC1)C.C(F)(F)(F)S(=O)(=O)[N-]S(=O)(=O)C(F)(F)F,C1CCC[N+]1(CCC)C.O=S(=O)([N-]S(=O)(=O)C(F)(F)F)C(F)(F)F,40,1,534,40
354.65,0.1,0.1172,Training,1-propyl-1-methylpyrrolidinium bis(trifluoromethylsulfonyl)imide,CCC[N+]1(CCCC1)C.C(F)(F)(F)S(=O)(=O)[N-]S(=O)(=O)C(F)(F)F,C(F)(S([N-]S(=O)(=O)C(F)(F)F)(=O)=O)(F)F.C1C[N+](C)(CCC)CC1,40,1,534,40
354.65,0.1,0.1172,Training,1-propyl-1-methylpyrrolidinium bis(trifluoromethylsulfonyl)imide,CCC[N+]1(CCCC1)C.C(F)(F)(F)S(=O)(=O)[N-]S(=O)(=O)C(F)(F)F,FC(F)(S(=O)(=O)[N-]S(C(F)(F)F)(=O)=O)F.[N+]1(C)(CCC)CCCC1,40,1,534,40
354.65,0.1,0.1172,Training,1-propyl-1-methylpyrrolidinium bis(trifluoromethylsulfonyl)imide,CCC[N+]1(CCCC1)C.C(F)(F)(F)S(=O)(=O)[N-]S(=O)(=O)C(F)(F)F,C1[N+](CCC)(CCC1)C.O=S(C(F)(F)F)(=O)[N-]S(=O)(C(F)(F)F)=O,40,1,534,40
389.67,0.1,0.1162,Training,1-propyl-1-methylpyrrolidinium bis(trifluoromethylsulfonyl)imide,CCC[N+]1(CCCC1)C.C(F)(F)(F)S(=O)(=O)[N-]S(=O)(=O)C(F)(F)F,CCC[N+]1(C)CCCC1.O=S(=O)([N-]S(=O)(=O)C(F)(F)F)C(F)(F)F,40,1,535,40
389.67,0.1,0.1162,Training,1-propyl-1-methylpyrrolidinium bis(trifluoromethylsulfonyl)imide,CCC[N+]1(CCCC1)C.C(F)(F)(F)S(=O)(=O)[N-]S(=O)(=O)C(F)(F)F,C(CC)[N+]1(C)CCCC1.S(C(F)(F)F)(=O)(=O)[N-]S(=O)(C(F)(F)F)=O,40,1,535,40
389.67,0.1,0.1162,Training,1-propyl-1-methylpyrrolidinium bis(trifluoromethylsulfonyl)imide,CCC[N+]1(CCCC1)C.C(F)(F)(F)S(=O)(=O)[N-]S(=O)(=O)C(F)(F)F,C1C[N+](CC1)(C)CCC.[N-](S(=O)(=O)C(F)(F)F)S(=O)(=O)C(F)(F)F,40,1,535,40
389.67,0.1,0.1162,Training,1-propyl-1-methylpyrrolidinium bis(trifluoromethylsulfonyl)imide,CCC[N+]1(CCCC1)C.C(F)(F)(F)S(=O)(=O)[N-]S(=O)(=O)C(F)(F)F,C(C)C[N+]1(CCCC1)C.O=S([N-]S(=O)(=O)C(F)(F)F)(C(F)(F)F)=O,40,1,535,40
389.67,0.1,0.1162,Training,1-propyl-1-methylpyrrolidinium bis(trifluoromethylsulfonyl)imide,CCC[N+]1(CCCC1)C.C(F)(F)(F)S(=O)(=O)[N-]S(=O)(=O)C(F)(F)F,O=S([N-]S(C(F)(F)F)(=O)=O)(C(F)(F)F)=O.[N+]1(CCCC1)(C)CCC,40,1,535,40
389.67,0.1,0.1162,Training,1-propyl-1-methylpyrrolidinium bis(trifluoromethylsulfonyl)imide,CCC[N+]1(CCCC1)C.C(F)(F)(F)S(=O)(=O)[N-]S(=O)(=O)C(F)(F)F,C([N+]1(C)CCCC1)CC.FC(F)(S(=O)([N-]S(=O)(=O)C(F)(F)F)=O)F,40,1,535,40
389.67,0.1,0.1162,Training,1-propyl-1-methylpyrrolidinium bis(trifluoromethylsulfonyl)imide,CCC[N+]1(CCCC1)C.C(F)(F)(F)S(=O)(=O)[N-]S(=O)(=O)C(F)(F)F,CCC[N+]1(CCCC1)C.S(C(F)(F)F)([N-]S(=O)(=O)C(F)(F)F)(=O)=O,40,1,535,40
389.67,0.1,0.1162,Training,1-propyl-1-methylpyrrolidinium bis(trifluoromethylsulfonyl)imide,CCC[N+]1(CCCC1)C.C(F)(F)(F)S(=O)(=O)[N-]S(=O)(=O)C(F)(F)F,C(S(=O)(=O)[N-]S(=O)(C(F)(F)F)=O)(F)(F)F.C1C[N+](CC1)(CCC)C,40,1,535,40
389.67,0.1,0.1162,Training,1-propyl-1-methylpyrrolidinium bis(trifluoromethylsulfonyl)imide,CCC[N+]1(CCCC1)C.C(F)(F)(F)S(=O)(=O)[N-]S(=O)(=O)C(F)(F)F,C1[N+](CCC1)(C)CCC.O=S(=O)(C(F)(F)F)[N-]S(=O)(C(F)(F)F)=O,40,1,535,40
389.67,0.1,0.1162,Training,1-propyl-1-methylpyrrolidinium bis(trifluoromethylsulfonyl)imide,CCC[N+]1(CCCC1)C.C(F)(F)(F)S(=O)(=O)[N-]S(=O)(=O)C(F)(F)F,C1C[N+](C)(CC1)CCC.O=S(=O)(C(F)(F)F)[N-]S(=O)(C(F)(F)F)=O,40,1,535,40
408.29,0.1,0.1142,Training,1-propyl-1-methylpyrrolidinium bis(trifluoromethylsulfonyl)imide,CCC[N+]1(CCCC1)C.C(F)(F)(F)S(=O)(=O)[N-]S(=O)(=O)C(F)(F)F,CCC[N+]1(C)CCCC1.O=S(=O)([N-]S(=O)(=O)C(F)(F)F)C(F)(F)F,40,1,536,40
408.29,0.1,0.1142,Training,1-propyl-1-methylpyrrolidinium bis(trifluoromethylsulfonyl)imide,CCC[N+]1(CCCC1)C.C(F)(F)(F)S(=O)(=O)[N-]S(=O)(=O)C(F)(F)F,C([N+]1(C)CCCC1)CC.O=S([N-]S(=O)(C(F)(F)F)=O)(C(F)(F)F)=O,40,1,536,40
408.29,0.1,0.1142,Training,1-propyl-1-methylpyrrolidinium bis(trifluoromethylsulfonyl)imide,CCC[N+]1(CCCC1)C.C(F)(F)(F)S(=O)(=O)[N-]S(=O)(=O)C(F)(F)F,CCC[N+]1(C)CCCC1.O=S(=O)([N-]S(=O)(C(F)(F)F)=O)C(F)(F)F,40,1,536,40
408.29,0.1,0.1142,Training,1-propyl-1-methylpyrrolidinium bis(trifluoromethylsulfonyl)imide,CCC[N+]1(CCCC1)C.C(F)(F)(F)S(=O)(=O)[N-]S(=O)(=O)C(F)(F)F,C1CCC[N+]1(C)CCC.FC(F)(S(=O)([N-]S(C(F)(F)F)(=O)=O)=O)F,40,1,536,40
408.29,0.1,0.1142,Training,1-propyl-1-methylpyrrolidinium bis(trifluoromethylsulfonyl)imide,CCC[N+]1(CCCC1)C.C(F)(F)(F)S(=O)(=O)[N-]S(=O)(=O)C(F)(F)F,C1CC[N+](CCC)(C1)C.FC(S(=O)([N-]S(=O)(C(F)(F)F)=O)=O)(F)F,40,1,536,40
408.29,0.1,0.1142,Training,1-propyl-1-methylpyrrolidinium bis(trifluoromethylsulfonyl)imide,CCC[N+]1(CCCC1)C.C(F)(F)(F)S(=O)(=O)[N-]S(=O)(=O)C(F)(F)F,C1[N+](CCC1)(CCC)C.FC(S(=O)(=O)[N-]S(C(F)(F)F)(=O)=O)(F)F,40,1,536,40
408.29,0.1,0.1142,Training,1-propyl-1-methylpyrrolidinium bis(trifluoromethylsulfonyl)imide,CCC[N+]1(CCCC1)C.C(F)(F)(F)S(=O)(=O)[N-]S(=O)(=O)C(F)(F)F,CCC[N+]1(C)CCCC1.S(=O)([N-]S(=O)(C(F)(F)F)=O)(C(F)(F)F)=O,40,1,536,40
408.29,0.1,0.1142,Training,1-propyl-1-methylpyrrolidinium bis(trifluoromethylsulfonyl)imide,CCC[N+]1(CCCC1)C.C(F)(F)(F)S(=O)(=O)[N-]S(=O)(=O)C(F)(F)F,CCC[N+]1(C)CCCC1.FC(F)(S(=O)(=O)[N-]S(=O)(C(F)(F)F)=O)F,40,1,536,40
408.29,0.1,0.1142,Training,1-propyl-1-methylpyrrolidinium bis(trifluoromethylsulfonyl)imide,CCC[N+]1(CCCC1)C.C(F)(F)(F)S(=O)(=O)[N-]S(=O)(=O)C(F)(F)F,C(F)(F)(F)S(=O)([N-]S(=O)(=O)C(F)(F)F)=O.C([N+]1(CCCC1)C)CC,40,1,536,40
408.29,0.1,0.1142,Training,1-propyl-1-methylpyrrolidinium bis(trifluoromethylsulfonyl)imide,CCC[N+]1(CCCC1)C.C(F)(F)(F)S(=O)(=O)[N-]S(=O)(=O)C(F)(F)F,C(F)(F)(S([N-]S(C(F)(F)F)(=O)=O)(=O)=O)F.C1[N+](CCC)(CCC1)C,40,1,536,40
409.24,0.1,0.1156,Testing,1-propyl-1-methylpyrrolidinium bis(trifluoromethylsulfonyl)imide,CCC[N+]1(CCCC1)C.C(F)(F)(F)S(=O)(=O)[N-]S(=O)(=O)C(F)(F)F,CCC[N+]1(C)CCCC1.O=S(=O)([N-]S(=O)(=O)C(F)(F)F)C(F)(F)F,40,1,537,40
409.24,0.1,0.1156,Testing,1-propyl-1-methylpyrrolidinium bis(trifluoromethylsulfonyl)imide,CCC[N+]1(CCCC1)C.C(F)(F)(F)S(=O)(=O)[N-]S(=O)(=O)C(F)(F)F,C(C)C[N+]1(C)CCCC1.O=S(=O)(C(F)(F)F)[N-]S(C(F)(F)F)(=O)=O,40,1,537,40
409.24,0.1,0.1156,Testing,1-propyl-1-methylpyrrolidinium bis(trifluoromethylsulfonyl)imide,CCC[N+]1(CCCC1)C.C(F)(F)(F)S(=O)(=O)[N-]S(=O)(=O)C(F)(F)F,C1CC[N+](C)(CCC)C1.FC(F)(F)S(=O)([N-]S(=O)(=O)C(F)(F)F)=O,40,1,537,40
409.24,0.1,0.1156,Testing,1-propyl-1-methylpyrrolidinium bis(trifluoromethylsulfonyl)imide,CCC[N+]1(CCCC1)C.C(F)(F)(F)S(=O)(=O)[N-]S(=O)(=O)C(F)(F)F,C1CC[N+](CCC)(C)C1.O=S(=O)(C(F)(F)F)[N-]S(C(F)(F)F)(=O)=O,40,1,537,40
409.24,0.1,0.1156,Testing,1-propyl-1-methylpyrrolidinium bis(trifluoromethylsulfonyl)imide,CCC[N+]1(CCCC1)C.C(F)(F)(F)S(=O)(=O)[N-]S(=O)(=O)C(F)(F)F,C1[N+](CCC)(C)CCC1.FC(S(=O)([N-]S(=O)(C(F)(F)F)=O)=O)(F)F,40,1,537,40
409.24,0.1,0.1156,Testing,1-propyl-1-methylpyrrolidinium bis(trifluoromethylsulfonyl)imide,CCC[N+]1(CCCC1)C.C(F)(F)(F)S(=O)(=O)[N-]S(=O)(=O)C(F)(F)F,C(C)C[N+]1(CCCC1)C.FC(F)(S(=O)([N-]S(=O)(=O)C(F)(F)F)=O)F,40,1,537,40
409.24,0.1,0.1156,Testing,1-propyl-1-methylpyrrolidinium bis(trifluoromethylsulfonyl)imide,CCC[N+]1(CCCC1)C.C(F)(F)(F)S(=O)(=O)[N-]S(=O)(=O)C(F)(F)F,C1C[N+](CC1)(C)CCC.O=S([N-]S(=O)(=O)C(F)(F)F)(C(F)(F)F)=O,40,1,537,40
409.24,0.1,0.1156,Testing,1-propyl-1-methylpyrrolidinium bis(trifluoromethylsulfonyl)imide,CCC[N+]1(CCCC1)C.C(F)(F)(F)S(=O)(=O)[N-]S(=O)(=O)C(F)(F)F,C[N+]1(CCCC1)CCC.O=S(=O)(C(F)(F)F)[N-]S(=O)(=O)C(F)(F)F,40,1,537,40
409.24,0.1,0.1156,Testing,1-propyl-1-methylpyrrolidinium bis(trifluoromethylsulfonyl)imide,CCC[N+]1(CCCC1)C.C(F)(F)(F)S(=O)(=O)[N-]S(=O)(=O)C(F)(F)F,C1[N+](CCC)(CCC1)C.O=S(C(F)(F)F)([N-]S(C(F)(F)F)(=O)=O)=O,40,1,537,40
409.24,0.1,0.1156,Testing,1-propyl-1-methylpyrrolidinium bis(trifluoromethylsulfonyl)imide,CCC[N+]1(CCCC1)C.C(F)(F)(F)S(=O)(=O)[N-]S(=O)(=O)C(F)(F)F,C(F)(F)(F)S(=O)(=O)[N-]S(=O)(=O)C(F)(F)F.C1C[N+](CC1)(C)CCC,40,1,537,40
434.89,0.1,0.115,Testing,1-propyl-1-methylpyrrolidinium bis(trifluoromethylsulfonyl)imide,CCC[N+]1(CCCC1)C.C(F)(F)(F)S(=O)(=O)[N-]S(=O)(=O)C(F)(F)F,CCC[N+]1(C)CCCC1.O=S(=O)([N-]S(=O)(=O)C(F)(F)F)C(F)(F)F,40,1,538,40
434.89,0.1,0.115,Testing,1-propyl-1-methylpyrrolidinium bis(trifluoromethylsulfonyl)imide,CCC[N+]1(CCCC1)C.C(F)(F)(F)S(=O)(=O)[N-]S(=O)(=O)C(F)(F)F,C1CC[N+](CCC)(C)C1.O=S(C(F)(F)F)([N-]S(C(F)(F)F)(=O)=O)=O,40,1,538,40
434.89,0.1,0.115,Testing,1-propyl-1-methylpyrrolidinium bis(trifluoromethylsulfonyl)imide,CCC[N+]1(CCCC1)C.C(F)(F)(F)S(=O)(=O)[N-]S(=O)(=O)C(F)(F)F,C1CC[N+](C1)(C)CCC.O=S(C(F)(F)F)(=O)[N-]S(=O)(C(F)(F)F)=O,40,1,538,40
434.89,0.1,0.115,Testing,1-propyl-1-methylpyrrolidinium bis(trifluoromethylsulfonyl)imide,CCC[N+]1(CCCC1)C.C(F)(F)(F)S(=O)(=O)[N-]S(=O)(=O)C(F)(F)F,S(=O)(=O)([N-]S(=O)(=O)C(F)(F)F)C(F)(F)F.[N+]1(CCC)(C)CCCC1,40,1,538,40
434.89,0.1,0.115,Testing,1-propyl-1-methylpyrrolidinium bis(trifluoromethylsulfonyl)imide,CCC[N+]1(CCCC1)C.C(F)(F)(F)S(=O)(=O)[N-]S(=O)(=O)C(F)(F)F,C1[N+](C)(CCC1)CCC.FC(F)(S(=O)(=O)[N-]S(C(F)(F)F)(=O)=O)F,40,1,538,40
434.89,0.1,0.115,Testing,1-propyl-1-methylpyrrolidinium bis(trifluoromethylsulfonyl)imide,CCC[N+]1(CCCC1)C.C(F)(F)(F)S(=O)(=O)[N-]S(=O)(=O)C(F)(F)F,C1[N+](CCC1)(C)CCC.S([N-]S(C(F)(F)F)(=O)=O)(=O)(C(F)(F)F)=O,40,1,538,40
434.89,0.1,0.115,Testing,1-propyl-1-methylpyrrolidinium bis(trifluoromethylsulfonyl)imide,CCC[N+]1(CCCC1)C.C(F)(F)(F)S(=O)(=O)[N-]S(=O)(=O)C(F)(F)F,C(C[N+]1(CCCC1)C)C.S(=O)([N-]S(C(F)(F)F)(=O)=O)(=O)C(F)(F)F,40,1,538,40
434.89,0.1,0.115,Testing,1-propyl-1-methylpyrrolidinium bis(trifluoromethylsulfonyl)imide,CCC[N+]1(CCCC1)C.C(F)(F)(F)S(=O)(=O)[N-]S(=O)(=O)C(F)(F)F,CCC[N+]1(CCCC1)C.FC(S(=O)([N-]S(C(F)(F)F)(=O)=O)=O)(F)F,40,1,538,40
434.89,0.1,0.115,Testing,1-propyl-1-methylpyrrolidinium bis(trifluoromethylsulfonyl)imide,CCC[N+]1(CCCC1)C.C(F)(F)(F)S(=O)(=O)[N-]S(=O)(=O)C(F)(F)F,S(C(F)(F)F)(=O)([N-]S(C(F)(F)F)(=O)=O)=O.[N+]1(CCC)(C)CCCC1,40,1,538,40
434.89,0.1,0.115,Testing,1-propyl-1-methylpyrrolidinium bis(trifluoromethylsulfonyl)imide,CCC[N+]1(CCCC1)C.C(F)(F)(F)S(=O)(=O)[N-]S(=O)(=O)C(F)(F)F,C1C[N+](CCC)(C)CC1.FC(F)(S(=O)(=O)[N-]S(C(F)(F)F)(=O)=O)F,40,1,538,40
435.53,0.1,0.1138,Training,1-propyl-1-methylpyrrolidinium bis(trifluoromethylsulfonyl)imide,CCC[N+]1(CCCC1)C.C(F)(F)(F)S(=O)(=O)[N-]S(=O)(=O)C(F)(F)F,CCC[N+]1(C)CCCC1.O=S(=O)([N-]S(=O)(=O)C(F)(F)F)C(F)(F)F,40,1,539,40
435.53,0.1,0.1138,Training,1-propyl-1-methylpyrrolidinium bis(trifluoromethylsulfonyl)imide,CCC[N+]1(CCCC1)C.C(F)(F)(F)S(=O)(=O)[N-]S(=O)(=O)C(F)(F)F,C[N+]1(CCC)CCCC1.O=S(=O)([N-]S(C(F)(F)F)(=O)=O)C(F)(F)F,40,1,539,40
435.53,0.1,0.1138,Training,1-propyl-1-methylpyrrolidinium bis(trifluoromethylsulfonyl)imide,CCC[N+]1(CCCC1)C.C(F)(F)(F)S(=O)(=O)[N-]S(=O)(=O)C(F)(F)F,CCC[N+]1(C)CCCC1.FC(F)(F)S(=O)([N-]S(=O)(=O)C(F)(F)F)=O,40,1,539,40
435.53,0.1,0.1138,Training,1-propyl-1-methylpyrrolidinium bis(trifluoromethylsulfonyl)imide,CCC[N+]1(CCCC1)C.C(F)(F)(F)S(=O)(=O)[N-]S(=O)(=O)C(F)(F)F,C1[N+](CCC)(C)CCC1.FC(F)(F)S(=O)([N-]S(=O)(=O)C(F)(F)F)=O,40,1,539,40
435.53,0.1,0.1138,Training,1-propyl-1-methylpyrrolidinium bis(trifluoromethylsulfonyl)imide,CCC[N+]1(CCCC1)C.C(F)(F)(F)S(=O)(=O)[N-]S(=O)(=O)C(F)(F)F,FC(S(=O)(=O)[N-]S(C(F)(F)F)(=O)=O)(F)F.[N+]1(CCCC1)(C)CCC,40,1,539,40
435.53,0.1,0.1138,Training,1-propyl-1-methylpyrrolidinium bis(trifluoromethylsulfonyl)imide,CCC[N+]1(CCCC1)C.C(F)(F)(F)S(=O)(=O)[N-]S(=O)(=O)C(F)(F)F,C1C[N+](C)(CC1)CCC.O=S(=O)([N-]S(C(F)(F)F)(=O)=O)C(F)(F)F,40,1,539,40
435.53,0.1,0.1138,Training,1-propyl-1-methylpyrrolidinium bis(trifluoromethylsulfonyl)imide,CCC[N+]1(CCCC1)C.C(F)(F)(F)S(=O)(=O)[N-]S(=O)(=O)C(F)(F)F,C1CC[N+](CCC)(C)C1.S(=O)([N-]S(=O)(C(F)(F)F)=O)(=O)C(F)(F)F,40,1,539,40