T/K,P/MPa,TC/W m-1 K-1,Data type,Name,SMILES,Normalized SMILES,index,P/bar,RANDOM,IL
273.15,0.1,0.1314,Training,methyltrioctylammonium bis(trifluoromethylsulfonyl)imide,CCCCCCCC[N+](C)(CCCCCCCC)CCCCCCCC.C(F)(F)(F)S(=O)(=O)[N-]S(=O)(=O)C(F)(F)F,CCCCCCCC[N+](C)(CCCCCCCC)CCCCCCCC.O=S(=O)([N-]S(=O)(=O)C(F)(F)F)C(F)(F)F,15,1,279,15
273.15,0.1,0.1314,Training,methyltrioctylammonium bis(trifluoromethylsulfonyl)imide,CCCCCCCC[N+](C)(CCCCCCCC)CCCCCCCC.C(F)(F)(F)S(=O)(=O)[N-]S(=O)(=O)C(F)(F)F,C(CCCCCC[N+](CCCCCCCC)(CCCCCCCC)C)C.[N-](S(C(F)(F)F)(=O)=O)S(=O)(=O)C(F)(F)F,15,1,279,15
273.15,0.1,0.1314,Training,methyltrioctylammonium bis(trifluoromethylsulfonyl)imide,CCCCCCCC[N+](C)(CCCCCCCC)CCCCCCCC.C(F)(F)(F)S(=O)(=O)[N-]S(=O)(=O)C(F)(F)F,C(CCCC)CCC[N+](C)(CCCCCCCC)CCCCCCCC.S([N-]S(=O)(=O)C(F)(F)F)(=O)(=O)C(F)(F)F,15,1,279,15
273.15,0.1,0.1314,Training,methyltrioctylammonium bis(trifluoromethylsulfonyl)imide,CCCCCCCC[N+](C)(CCCCCCCC)CCCCCCCC.C(F)(F)(F)S(=O)(=O)[N-]S(=O)(=O)C(F)(F)F,CCCCCCCC[N+](CCCCCCCC)(CCCCCCCC)C.[N-](S(C(F)(F)F)(=O)=O)S(=O)(=O)C(F)(F)F,15,1,279,15
273.15,0.1,0.1314,Training,methyltrioctylammonium bis(trifluoromethylsulfonyl)imide,CCCCCCCC[N+](C)(CCCCCCCC)CCCCCCCC.C(F)(F)(F)S(=O)(=O)[N-]S(=O)(=O)C(F)(F)F,C(CCCCC[N+](C)(CCCCCCCC)CCCCCCCC)CC.C(F)(S(=O)(=O)[N-]S(=O)(=O)C(F)(F)F)(F)F,15,1,279,15
273.15,0.1,0.1314,Training,methyltrioctylammonium bis(trifluoromethylsulfonyl)imide,CCCCCCCC[N+](C)(CCCCCCCC)CCCCCCCC.C(F)(F)(F)S(=O)(=O)[N-]S(=O)(=O)C(F)(F)F,C(F)(S([N-]S(C(F)(F)F)(=O)=O)(=O)=O)(F)F.C([N+](CCCCCCCC)(C)CCCCCCCC)CCCCCCC,15,1,279,15
273.15,0.1,0.1314,Training,methyltrioctylammonium bis(trifluoromethylsulfonyl)imide,CCCCCCCC[N+](C)(CCCCCCCC)CCCCCCCC.C(F)(F)(F)S(=O)(=O)[N-]S(=O)(=O)C(F)(F)F,C(CCCC)CCC[N+](CCCCCCCC)(C)CCCCCCCC.O=S(C(F)(F)F)([N-]S(=O)(=O)C(F)(F)F)=O,15,1,279,15
273.15,0.1,0.1314,Training,methyltrioctylammonium bis(trifluoromethylsulfonyl)imide,CCCCCCCC[N+](C)(CCCCCCCC)CCCCCCCC.C(F)(F)(F)S(=O)(=O)[N-]S(=O)(=O)C(F)(F)F,C(CCCC)CCC[N+](CCCCCCCC)(C)CCCCCCCC.FC(S([N-]S(C(F)(F)F)(=O)=O)(=O)=O)(F)F,15,1,279,15
273.15,0.1,0.1314,Training,methyltrioctylammonium bis(trifluoromethylsulfonyl)imide,CCCCCCCC[N+](C)(CCCCCCCC)CCCCCCCC.C(F)(F)(F)S(=O)(=O)[N-]S(=O)(=O)C(F)(F)F,C(C[N+](C)(CCCCCCCC)CCCCCCCC)CCCCCC.FC(S([N-]S(C(F)(F)F)(=O)=O)(=O)=O)(F)F,15,1,279,15
273.15,0.1,0.1314,Training,methyltrioctylammonium bis(trifluoromethylsulfonyl)imide,CCCCCCCC[N+](C)(CCCCCCCC)CCCCCCCC.C(F)(F)(F)S(=O)(=O)[N-]S(=O)(=O)C(F)(F)F,C(CC[N+](CCCCCCCC)(C)CCCCCCCC)CCCCC.O=S([N-]S(=O)(C(F)(F)F)=O)(=O)C(F)(F)F,15,1,279,15
283.15,0.1,0.1291,Training,methyltrioctylammonium bis(trifluoromethylsulfonyl)imide,CCCCCCCC[N+](C)(CCCCCCCC)CCCCCCCC.C(F)(F)(F)S(=O)(=O)[N-]S(=O)(=O)C(F)(F)F,CCCCCCCC[N+](C)(CCCCCCCC)CCCCCCCC.O=S(=O)([N-]S(=O)(=O)C(F)(F)F)C(F)(F)F,15,1,280,15
283.15,0.1,0.1291,Training,methyltrioctylammonium bis(trifluoromethylsulfonyl)imide,CCCCCCCC[N+](C)(CCCCCCCC)CCCCCCCC.C(F)(F)(F)S(=O)(=O)[N-]S(=O)(=O)C(F)(F)F,CCCCCCCC[N+](CCCCCCCC)(C)CCCCCCCC.O=S(C(F)(F)F)(=O)[N-]S(=O)(C(F)(F)F)=O,15,1,280,15
283.15,0.1,0.1291,Training,methyltrioctylammonium bis(trifluoromethylsulfonyl)imide,CCCCCCCC[N+](C)(CCCCCCCC)CCCCCCCC.C(F)(F)(F)S(=O)(=O)[N-]S(=O)(=O)C(F)(F)F,C(CC)CCCCC[N+](CCCCCCCC)(C)CCCCCCCC.C(S(=O)(=O)[N-]S(=O)(C(F)(F)F)=O)(F)(F)F,15,1,280,15
283.15,0.1,0.1291,Training,methyltrioctylammonium bis(trifluoromethylsulfonyl)imide,CCCCCCCC[N+](C)(CCCCCCCC)CCCCCCCC.C(F)(F)(F)S(=O)(=O)[N-]S(=O)(=O)C(F)(F)F,C(C[N+](CCCCCCCC)(CCCCCCCC)C)CCCCCC.S([N-]S(=O)(=O)C(F)(F)F)(=O)(=O)C(F)(F)F,15,1,280,15
283.15,0.1,0.1291,Training,methyltrioctylammonium bis(trifluoromethylsulfonyl)imide,CCCCCCCC[N+](C)(CCCCCCCC)CCCCCCCC.C(F)(F)(F)S(=O)(=O)[N-]S(=O)(=O)C(F)(F)F,C(CCCCC[N+](CCCCCCCC)(CCCCCCCC)C)CC.S(=O)(C(F)(F)F)(=O)[N-]S(C(F)(F)F)(=O)=O,15,1,280,15
283.15,0.1,0.1291,Training,methyltrioctylammonium bis(trifluoromethylsulfonyl)imide,CCCCCCCC[N+](C)(CCCCCCCC)CCCCCCCC.C(F)(F)(F)S(=O)(=O)[N-]S(=O)(=O)C(F)(F)F,C(CCCC)CCC[N+](CCCCCCCC)(CCCCCCCC)C.FC(F)(F)S(=O)([N-]S(=O)(=O)C(F)(F)F)=O,15,1,280,15
283.15,0.1,0.1291,Training,methyltrioctylammonium bis(trifluoromethylsulfonyl)imide,CCCCCCCC[N+](C)(CCCCCCCC)CCCCCCCC.C(F)(F)(F)S(=O)(=O)[N-]S(=O)(=O)C(F)(F)F,C(CCCCC[N+](CCCCCCCC)(CCCCCCCC)C)CC.FC(F)(S(=O)(=O)[N-]S(=O)(=O)C(F)(F)F)F,15,1,280,15
283.15,0.1,0.1291,Training,methyltrioctylammonium bis(trifluoromethylsulfonyl)imide,CCCCCCCC[N+](C)(CCCCCCCC)CCCCCCCC.C(F)(F)(F)S(=O)(=O)[N-]S(=O)(=O)C(F)(F)F,CCCCCCCC[N+](CCCCCCCC)(C)CCCCCCCC.O=S([N-]S(C(F)(F)F)(=O)=O)(=O)C(F)(F)F,15,1,280,15
283.15,0.1,0.1291,Training,methyltrioctylammonium bis(trifluoromethylsulfonyl)imide,CCCCCCCC[N+](C)(CCCCCCCC)CCCCCCCC.C(F)(F)(F)S(=O)(=O)[N-]S(=O)(=O)C(F)(F)F,C(CCCC)CCC[N+](CCCCCCCC)(CCCCCCCC)C.FC(F)(F)S([N-]S(=O)(=O)C(F)(F)F)(=O)=O,15,1,280,15
283.15,0.1,0.1291,Training,methyltrioctylammonium bis(trifluoromethylsulfonyl)imide,CCCCCCCC[N+](C)(CCCCCCCC)CCCCCCCC.C(F)(F)(F)S(=O)(=O)[N-]S(=O)(=O)C(F)(F)F,C(C)CCCCCC[N+](CCCCCCCC)(CCCCCCCC)C.O=S(C(F)(F)F)(=O)[N-]S(=O)(C(F)(F)F)=O,15,1,280,15
293.15,0.1,0.1299,Training,methyltrioctylammonium bis(trifluoromethylsulfonyl)imide,CCCCCCCC[N+](C)(CCCCCCCC)CCCCCCCC.C(F)(F)(F)S(=O)(=O)[N-]S(=O)(=O)C(F)(F)F,CCCCCCCC[N+](C)(CCCCCCCC)CCCCCCCC.O=S(=O)([N-]S(=O)(=O)C(F)(F)F)C(F)(F)F,15,1,281,15
293.15,0.1,0.1299,Training,methyltrioctylammonium bis(trifluoromethylsulfonyl)imide,CCCCCCCC[N+](C)(CCCCCCCC)CCCCCCCC.C(F)(F)(F)S(=O)(=O)[N-]S(=O)(=O)C(F)(F)F,C(CCC)CCCC[N+](CCCCCCCC)(CCCCCCCC)C.S([N-]S(=O)(C(F)(F)F)=O)(=O)(C(F)(F)F)=O,15,1,281,15
293.15,0.1,0.1299,Training,methyltrioctylammonium bis(trifluoromethylsulfonyl)imide,CCCCCCCC[N+](C)(CCCCCCCC)CCCCCCCC.C(F)(F)(F)S(=O)(=O)[N-]S(=O)(=O)C(F)(F)F,C(C)CCCCCC[N+](C)(CCCCCCCC)CCCCCCCC.O=S([N-]S(=O)(C(F)(F)F)=O)(C(F)(F)F)=O,15,1,281,15
293.15,0.1,0.1299,Training,methyltrioctylammonium bis(trifluoromethylsulfonyl)imide,CCCCCCCC[N+](C)(CCCCCCCC)CCCCCCCC.C(F)(F)(F)S(=O)(=O)[N-]S(=O)(=O)C(F)(F)F,C(C)CCCCCC[N+](C)(CCCCCCCC)CCCCCCCC.O=S([N-]S(=O)(C(F)(F)F)=O)(=O)C(F)(F)F,15,1,281,15
293.15,0.1,0.1299,Training,methyltrioctylammonium bis(trifluoromethylsulfonyl)imide,CCCCCCCC[N+](C)(CCCCCCCC)CCCCCCCC.C(F)(F)(F)S(=O)(=O)[N-]S(=O)(=O)C(F)(F)F,C[N+](CCCCCCCC)(CCCCCCCC)CCCCCCCC.FC(S(=O)([N-]S(=O)(C(F)(F)F)=O)=O)(F)F,15,1,281,15
293.15,0.1,0.1299,Training,methyltrioctylammonium bis(trifluoromethylsulfonyl)imide,CCCCCCCC[N+](C)(CCCCCCCC)CCCCCCCC.C(F)(F)(F)S(=O)(=O)[N-]S(=O)(=O)C(F)(F)F,C(CCCC[N+](C)(CCCCCCCC)CCCCCCCC)CCC.O=S(=O)(C(F)(F)F)[N-]S(C(F)(F)F)(=O)=O,15,1,281,15
293.15,0.1,0.1299,Training,methyltrioctylammonium bis(trifluoromethylsulfonyl)imide,CCCCCCCC[N+](C)(CCCCCCCC)CCCCCCCC.C(F)(F)(F)S(=O)(=O)[N-]S(=O)(=O)C(F)(F)F,C(C[N+](C)(CCCCCCCC)CCCCCCCC)CCCCCC.FC(F)(S([N-]S(=O)(C(F)(F)F)=O)(=O)=O)F,15,1,281,15
293.15,0.1,0.1299,Training,methyltrioctylammonium bis(trifluoromethylsulfonyl)imide,CCCCCCCC[N+](C)(CCCCCCCC)CCCCCCCC.C(F)(F)(F)S(=O)(=O)[N-]S(=O)(=O)C(F)(F)F,C(CCCC[N+](C)(CCCCCCCC)CCCCCCCC)CCC.S(=O)(=O)(C(F)(F)F)[N-]S(C(F)(F)F)(=O)=O,15,1,281,15
293.15,0.1,0.1299,Training,methyltrioctylammonium bis(trifluoromethylsulfonyl)imide,CCCCCCCC[N+](C)(CCCCCCCC)CCCCCCCC.C(F)(F)(F)S(=O)(=O)[N-]S(=O)(=O)C(F)(F)F,C(CCCCCCC)[N+](CCCCCCCC)(CCCCCCCC)C.FC(F)(S(=O)([N-]S(=O)(=O)C(F)(F)F)=O)F,15,1,281,15
293.15,0.1,0.1299,Training,methyltrioctylammonium bis(trifluoromethylsulfonyl)imide,CCCCCCCC[N+](C)(CCCCCCCC)CCCCCCCC.C(F)(F)(F)S(=O)(=O)[N-]S(=O)(=O)C(F)(F)F,C(C[N+](CCCCCCCC)(CCCCCCCC)C)CCCCCC.O=S(=O)(C(F)(F)F)[N-]S(=O)(C(F)(F)F)=O,15,1,281,15
303.15,0.1,0.1283,Training,methyltrioctylammonium bis(trifluoromethylsulfonyl)imide,CCCCCCCC[N+](C)(CCCCCCCC)CCCCCCCC.C(F)(F)(F)S(=O)(=O)[N-]S(=O)(=O)C(F)(F)F,CCCCCCCC[N+](C)(CCCCCCCC)CCCCCCCC.O=S(=O)([N-]S(=O)(=O)C(F)(F)F)C(F)(F)F,15,1,282,15
303.15,0.1,0.1283,Training,methyltrioctylammonium bis(trifluoromethylsulfonyl)imide,CCCCCCCC[N+](C)(CCCCCCCC)CCCCCCCC.C(F)(F)(F)S(=O)(=O)[N-]S(=O)(=O)C(F)(F)F,C(CCCC)CCC[N+](C)(CCCCCCCC)CCCCCCCC.FC(F)(F)S(=O)([N-]S(C(F)(F)F)(=O)=O)=O,15,1,282,15
303.15,0.1,0.1283,Training,methyltrioctylammonium bis(trifluoromethylsulfonyl)imide,CCCCCCCC[N+](C)(CCCCCCCC)CCCCCCCC.C(F)(F)(F)S(=O)(=O)[N-]S(=O)(=O)C(F)(F)F,C(C[N+](CCCCCCCC)(C)CCCCCCCC)CCCCCC.FC(F)(F)S(=O)(=O)[N-]S(=O)(=O)C(F)(F)F,15,1,282,15
303.15,0.1,0.1283,Training,methyltrioctylammonium bis(trifluoromethylsulfonyl)imide,CCCCCCCC[N+](C)(CCCCCCCC)CCCCCCCC.C(F)(F)(F)S(=O)(=O)[N-]S(=O)(=O)C(F)(F)F,C(CCCC[N+](CCCCCCCC)(C)CCCCCCCC)CCC.O=S(=O)([N-]S(=O)(C(F)(F)F)=O)C(F)(F)F,15,1,282,15
303.15,0.1,0.1283,Training,methyltrioctylammonium bis(trifluoromethylsulfonyl)imide,CCCCCCCC[N+](C)(CCCCCCCC)CCCCCCCC.C(F)(F)(F)S(=O)(=O)[N-]S(=O)(=O)C(F)(F)F,C(CCCCCCC)[N+](C)(CCCCCCCC)CCCCCCCC.S(=O)(C(F)(F)F)([N-]S(=O)(=O)C(F)(F)F)=O,15,1,282,15
303.15,0.1,0.1283,Training,methyltrioctylammonium bis(trifluoromethylsulfonyl)imide,CCCCCCCC[N+](C)(CCCCCCCC)CCCCCCCC.C(F)(F)(F)S(=O)(=O)[N-]S(=O)(=O)C(F)(F)F,C(CCC)CCCC[N+](CCCCCCCC)(C)CCCCCCCC.C(F)(S([N-]S(=O)(=O)C(F)(F)F)(=O)=O)(F)F,15,1,282,15
303.15,0.1,0.1283,Training,methyltrioctylammonium bis(trifluoromethylsulfonyl)imide,CCCCCCCC[N+](C)(CCCCCCCC)CCCCCCCC.C(F)(F)(F)S(=O)(=O)[N-]S(=O)(=O)C(F)(F)F,C(CCCCC)CC[N+](C)(CCCCCCCC)CCCCCCCC.S(C(F)(F)F)(=O)(=O)[N-]S(=O)(=O)C(F)(F)F,15,1,282,15
303.15,0.1,0.1283,Training,methyltrioctylammonium bis(trifluoromethylsulfonyl)imide,CCCCCCCC[N+](C)(CCCCCCCC)CCCCCCCC.C(F)(F)(F)S(=O)(=O)[N-]S(=O)(=O)C(F)(F)F,C(CCCCC[N+](C)(CCCCCCCC)CCCCCCCC)CC.O=S([N-]S(=O)(=O)C(F)(F)F)(=O)C(F)(F)F,15,1,282,15
303.15,0.1,0.1283,Training,methyltrioctylammonium bis(trifluoromethylsulfonyl)imide,CCCCCCCC[N+](C)(CCCCCCCC)CCCCCCCC.C(F)(F)(F)S(=O)(=O)[N-]S(=O)(=O)C(F)(F)F,C(CCCCC[N+](CCCCCCCC)(C)CCCCCCCC)CC.FC(S([N-]S(=O)(=O)C(F)(F)F)(=O)=O)(F)F,15,1,282,15
303.15,0.1,0.1283,Training,methyltrioctylammonium bis(trifluoromethylsulfonyl)imide,CCCCCCCC[N+](C)(CCCCCCCC)CCCCCCCC.C(F)(F)(F)S(=O)(=O)[N-]S(=O)(=O)C(F)(F)F,C([N+](CCCCCCCC)(C)CCCCCCCC)CCCCCCC.[N-](S(=O)(C(F)(F)F)=O)S(C(F)(F)F)(=O)=O,15,1,282,15
313.15,0.1,0.1266,Training,methyltrioctylammonium bis(trifluoromethylsulfonyl)imide,CCCCCCCC[N+](C)(CCCCCCCC)CCCCCCCC.C(F)(F)(F)S(=O)(=O)[N-]S(=O)(=O)C(F)(F)F,CCCCCCCC[N+](C)(CCCCCCCC)CCCCCCCC.O=S(=O)([N-]S(=O)(=O)C(F)(F)F)C(F)(F)F,15,1,283,15
313.15,0.1,0.1266,Training,methyltrioctylammonium bis(trifluoromethylsulfonyl)imide,CCCCCCCC[N+](C)(CCCCCCCC)CCCCCCCC.C(F)(F)(F)S(=O)(=O)[N-]S(=O)(=O)C(F)(F)F,C(CCCCCCC)[N+](CCCCCCCC)(C)CCCCCCCC.C(F)(F)(F)S(=O)(=O)[N-]S(=O)(C(F)(F)F)=O,15,1,283,15
313.15,0.1,0.1266,Training,methyltrioctylammonium bis(trifluoromethylsulfonyl)imide,CCCCCCCC[N+](C)(CCCCCCCC)CCCCCCCC.C(F)(F)(F)S(=O)(=O)[N-]S(=O)(=O)C(F)(F)F,C(CC[N+](CCCCCCCC)(CCCCCCCC)C)CCCCC.C(F)(F)(S(=O)(=O)[N-]S(C(F)(F)F)(=O)=O)F,15,1,283,15
313.15,0.1,0.1266,Training,methyltrioctylammonium bis(trifluoromethylsulfonyl)imide,CCCCCCCC[N+](C)(CCCCCCCC)CCCCCCCC.C(F)(F)(F)S(=O)(=O)[N-]S(=O)(=O)C(F)(F)F,CCCCCCCC[N+](CCCCCCCC)(CCCCCCCC)C.FC(F)(S([N-]S(C(F)(F)F)(=O)=O)(=O)=O)F,15,1,283,15
313.15,0.1,0.1266,Training,methyltrioctylammonium bis(trifluoromethylsulfonyl)imide,CCCCCCCC[N+](C)(CCCCCCCC)CCCCCCCC.C(F)(F)(F)S(=O)(=O)[N-]S(=O)(=O)C(F)(F)F,CCCCCCCC[N+](C)(CCCCCCCC)CCCCCCCC.O=S([N-]S(C(F)(F)F)(=O)=O)(C(F)(F)F)=O,15,1,283,15
313.15,0.1,0.1266,Training,methyltrioctylammonium bis(trifluoromethylsulfonyl)imide,CCCCCCCC[N+](C)(CCCCCCCC)CCCCCCCC.C(F)(F)(F)S(=O)(=O)[N-]S(=O)(=O)C(F)(F)F,CCCCCCCC[N+](CCCCCCCC)(CCCCCCCC)C.FC(S(=O)(=O)[N-]S(=O)(C(F)(F)F)=O)(F)F,15,1,283,15
313.15,0.1,0.1266,Training,methyltrioctylammonium bis(trifluoromethylsulfonyl)imide,CCCCCCCC[N+](C)(CCCCCCCC)CCCCCCCC.C(F)(F)(F)S(=O)(=O)[N-]S(=O)(=O)C(F)(F)F,C(C[N+](C)(CCCCCCCC)CCCCCCCC)CCCCCC.FC(F)(S(=O)(=O)[N-]S(=O)(=O)C(F)(F)F)F,15,1,283,15
313.15,0.1,0.1266,Training,methyltrioctylammonium bis(trifluoromethylsulfonyl)imide,CCCCCCCC[N+](C)(CCCCCCCC)CCCCCCCC.C(F)(F)(F)S(=O)(=O)[N-]S(=O)(=O)C(F)(F)F,C(CC)CCCCC[N+](C)(CCCCCCCC)CCCCCCCC.FC(S(=O)(=O)[N-]S(=O)(C(F)(F)F)=O)(F)F,15,1,283,15
313.15,0.1,0.1266,Training,methyltrioctylammonium bis(trifluoromethylsulfonyl)imide,CCCCCCCC[N+](C)(CCCCCCCC)CCCCCCCC.C(F)(F)(F)S(=O)(=O)[N-]S(=O)(=O)C(F)(F)F,C(CCCCCC[N+](CCCCCCCC)(CCCCCCCC)C)C.FC(F)(S(=O)([N-]S(=O)(C(F)(F)F)=O)=O)F,15,1,283,15
313.15,0.1,0.1266,Training,methyltrioctylammonium bis(trifluoromethylsulfonyl)imide,CCCCCCCC[N+](C)(CCCCCCCC)CCCCCCCC.C(F)(F)(F)S(=O)(=O)[N-]S(=O)(=O)C(F)(F)F,C(CCC[N+](CCCCCCCC)(C)CCCCCCCC)CCCC.O=S(=O)(C(F)(F)F)[N-]S(=O)(C(F)(F)F)=O,15,1,283,15
323.15,0.1,0.1247,Training,methyltrioctylammonium bis(trifluoromethylsulfonyl)imide,CCCCCCCC[N+](C)(CCCCCCCC)CCCCCCCC.C(F)(F)(F)S(=O)(=O)[N-]S(=O)(=O)C(F)(F)F,CCCCCCCC[N+](C)(CCCCCCCC)CCCCCCCC.O=S(=O)([N-]S(=O)(=O)C(F)(F)F)C(F)(F)F,15,1,284,15
323.15,0.1,0.1247,Training,methyltrioctylammonium bis(trifluoromethylsulfonyl)imide,CCCCCCCC[N+](C)(CCCCCCCC)CCCCCCCC.C(F)(F)(F)S(=O)(=O)[N-]S(=O)(=O)C(F)(F)F,CCCCCCCC[N+](CCCCCCCC)(CCCCCCCC)C.FC(S(=O)(=O)[N-]S(C(F)(F)F)(=O)=O)(F)F,15,1,284,15
323.15,0.1,0.1247,Training,methyltrioctylammonium bis(trifluoromethylsulfonyl)imide,CCCCCCCC[N+](C)(CCCCCCCC)CCCCCCCC.C(F)(F)(F)S(=O)(=O)[N-]S(=O)(=O)C(F)(F)F,C(CCCCCC[N+](CCCCCCCC)(C)CCCCCCCC)C.C(S(=O)([N-]S(C(F)(F)F)(=O)=O)=O)(F)(F)F,15,1,284,15
323.15,0.1,0.1247,Training,methyltrioctylammonium bis(trifluoromethylsulfonyl)imide,CCCCCCCC[N+](C)(CCCCCCCC)CCCCCCCC.C(F)(F)(F)S(=O)(=O)[N-]S(=O)(=O)C(F)(F)F,C(CCC)CCCC[N+](CCCCCCCC)(CCCCCCCC)C.C(F)(S(=O)(=O)[N-]S(=O)(=O)C(F)(F)F)(F)F,15,1,284,15
323.15,0.1,0.1247,Training,methyltrioctylammonium bis(trifluoromethylsulfonyl)imide,CCCCCCCC[N+](C)(CCCCCCCC)CCCCCCCC.C(F)(F)(F)S(=O)(=O)[N-]S(=O)(=O)C(F)(F)F,CCCCCCCC[N+](C)(CCCCCCCC)CCCCCCCC.FC(S(=O)([N-]S(=O)(=O)C(F)(F)F)=O)(F)F,15,1,284,15
323.15,0.1,0.1247,Training,methyltrioctylammonium bis(trifluoromethylsulfonyl)imide,CCCCCCCC[N+](C)(CCCCCCCC)CCCCCCCC.C(F)(F)(F)S(=O)(=O)[N-]S(=O)(=O)C(F)(F)F,C(CCCC)CCC[N+](CCCCCCCC)(C)CCCCCCCC.O=S(C(F)(F)F)(=O)[N-]S(=O)(C(F)(F)F)=O,15,1,284,15
323.15,0.1,0.1247,Training,methyltrioctylammonium bis(trifluoromethylsulfonyl)imide,CCCCCCCC[N+](C)(CCCCCCCC)CCCCCCCC.C(F)(F)(F)S(=O)(=O)[N-]S(=O)(=O)C(F)(F)F,C(CCCC)CCC[N+](CCCCCCCC)(C)CCCCCCCC.O=S(C(F)(F)F)([N-]S(C(F)(F)F)(=O)=O)=O,15,1,284,15
323.15,0.1,0.1247,Training,methyltrioctylammonium bis(trifluoromethylsulfonyl)imide,CCCCCCCC[N+](C)(CCCCCCCC)CCCCCCCC.C(F)(F)(F)S(=O)(=O)[N-]S(=O)(=O)C(F)(F)F,C(CCCCC)CC[N+](CCCCCCCC)(CCCCCCCC)C.FC(F)(F)S(=O)(=O)[N-]S(C(F)(F)F)(=O)=O,15,1,284,15
323.15,0.1,0.1247,Training,methyltrioctylammonium bis(trifluoromethylsulfonyl)imide,CCCCCCCC[N+](C)(CCCCCCCC)CCCCCCCC.C(F)(F)(F)S(=O)(=O)[N-]S(=O)(=O)C(F)(F)F,C(CCCCC[N+](C)(CCCCCCCC)CCCCCCCC)CC.O=S(C(F)(F)F)([N-]S(C(F)(F)F)(=O)=O)=O,15,1,284,15
323.15,0.1,0.1247,Training,methyltrioctylammonium bis(trifluoromethylsulfonyl)imide,CCCCCCCC[N+](C)(CCCCCCCC)CCCCCCCC.C(F)(F)(F)S(=O)(=O)[N-]S(=O)(=O)C(F)(F)F,C[N+](CCCCCCCC)(CCCCCCCC)CCCCCCCC.FC(F)(F)S(=O)(=O)[N-]S(=O)(=O)C(F)(F)F,15,1,284,15
333.15,0.1,0.1244,Training,methyltrioctylammonium bis(trifluoromethylsulfonyl)imide,CCCCCCCC[N+](C)(CCCCCCCC)CCCCCCCC.C(F)(F)(F)S(=O)(=O)[N-]S(=O)(=O)C(F)(F)F,CCCCCCCC[N+](C)(CCCCCCCC)CCCCCCCC.O=S(=O)([N-]S(=O)(=O)C(F)(F)F)C(F)(F)F,15,1,285,15
333.15,0.1,0.1244,Training,methyltrioctylammonium bis(trifluoromethylsulfonyl)imide,CCCCCCCC[N+](C)(CCCCCCCC)CCCCCCCC.C(F)(F)(F)S(=O)(=O)[N-]S(=O)(=O)C(F)(F)F,C(CCCCCC[N+](CCCCCCCC)(C)CCCCCCCC)C.FC(F)(F)S(=O)([N-]S(=O)(C(F)(F)F)=O)=O,15,1,285,15
333.15,0.1,0.1244,Training,methyltrioctylammonium bis(trifluoromethylsulfonyl)imide,CCCCCCCC[N+](C)(CCCCCCCC)CCCCCCCC.C(F)(F)(F)S(=O)(=O)[N-]S(=O)(=O)C(F)(F)F,O=S([N-]S(=O)(=O)C(F)(F)F)(=O)C(F)(F)F.[N+](CCCCCCCC)(CCCCCCCC)(CCCCCCCC)C,15,1,285,15
333.15,0.1,0.1244,Training,methyltrioctylammonium bis(trifluoromethylsulfonyl)imide,CCCCCCCC[N+](C)(CCCCCCCC)CCCCCCCC.C(F)(F)(F)S(=O)(=O)[N-]S(=O)(=O)C(F)(F)F,C(CCC[N+](CCCCCCCC)(C)CCCCCCCC)CCCC.S(=O)(=O)([N-]S(C(F)(F)F)(=O)=O)C(F)(F)F,15,1,285,15
333.15,0.1,0.1244,Training,methyltrioctylammonium bis(trifluoromethylsulfonyl)imide,CCCCCCCC[N+](C)(CCCCCCCC)CCCCCCCC.C(F)(F)(F)S(=O)(=O)[N-]S(=O)(=O)C(F)(F)F,C(CCCCCCC)[N+](C)(CCCCCCCC)CCCCCCCC.FC(F)(F)S(=O)([N-]S(=O)(C(F)(F)F)=O)=O,15,1,285,15
333.15,0.1,0.1244,Training,methyltrioctylammonium bis(trifluoromethylsulfonyl)imide,CCCCCCCC[N+](C)(CCCCCCCC)CCCCCCCC.C(F)(F)(F)S(=O)(=O)[N-]S(=O)(=O)C(F)(F)F,C([N+](C)(CCCCCCCC)CCCCCCCC)CCCCCCC.FC(F)(S(=O)(=O)[N-]S(C(F)(F)F)(=O)=O)F,15,1,285,15
333.15,0.1,0.1244,Training,methyltrioctylammonium bis(trifluoromethylsulfonyl)imide,CCCCCCCC[N+](C)(CCCCCCCC)CCCCCCCC.C(F)(F)(F)S(=O)(=O)[N-]S(=O)(=O)C(F)(F)F,O=S([N-]S(C(F)(F)F)(=O)=O)(C(F)(F)F)=O.[N+](CCCCCCCC)(CCCCCCCC)(C)CCCCCCCC,15,1,285,15
333.15,0.1,0.1244,Training,methyltrioctylammonium bis(trifluoromethylsulfonyl)imide,CCCCCCCC[N+](C)(CCCCCCCC)CCCCCCCC.C(F)(F)(F)S(=O)(=O)[N-]S(=O)(=O)C(F)(F)F,C(CC)CCCCC[N+](CCCCCCCC)(C)CCCCCCCC.FC(F)(S(=O)([N-]S(=O)(=O)C(F)(F)F)=O)F,15,1,285,15
333.15,0.1,0.1244,Training,methyltrioctylammonium bis(trifluoromethylsulfonyl)imide,CCCCCCCC[N+](C)(CCCCCCCC)CCCCCCCC.C(F)(F)(F)S(=O)(=O)[N-]S(=O)(=O)C(F)(F)F,C(CCCC[N+](C)(CCCCCCCC)CCCCCCCC)CCC.C(F)(S(=O)(=O)[N-]S(C(F)(F)F)(=O)=O)(F)F,15,1,285,15
333.15,0.1,0.1244,Training,methyltrioctylammonium bis(trifluoromethylsulfonyl)imide,CCCCCCCC[N+](C)(CCCCCCCC)CCCCCCCC.C(F)(F)(F)S(=O)(=O)[N-]S(=O)(=O)C(F)(F)F,C(CCCCC)CC[N+](CCCCCCCC)(C)CCCCCCCC.FC(F)(S([N-]S(=O)(C(F)(F)F)=O)(=O)=O)F,15,1,285,15
343.15,0.1,0.1242,Training,methyltrioctylammonium bis(trifluoromethylsulfonyl)imide,CCCCCCCC[N+](C)(CCCCCCCC)CCCCCCCC.C(F)(F)(F)S(=O)(=O)[N-]S(=O)(=O)C(F)(F)F,CCCCCCCC[N+](C)(CCCCCCCC)CCCCCCCC.O=S(=O)([N-]S(=O)(=O)C(F)(F)F)C(F)(F)F,15,1,286,15
343.15,0.1,0.1242,Training,methyltrioctylammonium bis(trifluoromethylsulfonyl)imide,CCCCCCCC[N+](C)(CCCCCCCC)CCCCCCCC.C(F)(F)(F)S(=O)(=O)[N-]S(=O)(=O)C(F)(F)F,C(CCCC[N+](CCCCCCCC)(C)CCCCCCCC)CCC.FC(S(=O)(=O)[N-]S(=O)(C(F)(F)F)=O)(F)F,15,1,286,15
343.15,0.1,0.1242,Training,methyltrioctylammonium bis(trifluoromethylsulfonyl)imide,CCCCCCCC[N+](C)(CCCCCCCC)CCCCCCCC.C(F)(F)(F)S(=O)(=O)[N-]S(=O)(=O)C(F)(F)F,CCCCCCCC[N+](C)(CCCCCCCC)CCCCCCCC.[N-](S(=O)(C(F)(F)F)=O)S(=O)(=O)C(F)(F)F,15,1,286,15
343.15,0.1,0.1242,Training,methyltrioctylammonium bis(trifluoromethylsulfonyl)imide,CCCCCCCC[N+](C)(CCCCCCCC)CCCCCCCC.C(F)(F)(F)S(=O)(=O)[N-]S(=O)(=O)C(F)(F)F,C(CCC[N+](CCCCCCCC)(C)CCCCCCCC)CCCC.FC(F)(F)S(=O)([N-]S(C(F)(F)F)(=O)=O)=O,15,1,286,15
343.15,0.1,0.1242,Training,methyltrioctylammonium bis(trifluoromethylsulfonyl)imide,CCCCCCCC[N+](C)(CCCCCCCC)CCCCCCCC.C(F)(F)(F)S(=O)(=O)[N-]S(=O)(=O)C(F)(F)F,C(CCCCC[N+](C)(CCCCCCCC)CCCCCCCC)CC.FC(F)(F)S(=O)(=O)[N-]S(=O)(=O)C(F)(F)F,15,1,286,15
343.15,0.1,0.1242,Training,methyltrioctylammonium bis(trifluoromethylsulfonyl)imide,CCCCCCCC[N+](C)(CCCCCCCC)CCCCCCCC.C(F)(F)(F)S(=O)(=O)[N-]S(=O)(=O)C(F)(F)F,C(CCCCC)CC[N+](C)(CCCCCCCC)CCCCCCCC.FC(S([N-]S(=O)(=O)C(F)(F)F)(=O)=O)(F)F,15,1,286,15
343.15,0.1,0.1242,Training,methyltrioctylammonium bis(trifluoromethylsulfonyl)imide,CCCCCCCC[N+](C)(CCCCCCCC)CCCCCCCC.C(F)(F)(F)S(=O)(=O)[N-]S(=O)(=O)C(F)(F)F,C(CCC)CCCC[N+](C)(CCCCCCCC)CCCCCCCC.FC(F)(F)S(=O)([N-]S(=O)(=O)C(F)(F)F)=O,15,1,286,15
343.15,0.1,0.1242,Training,methyltrioctylammonium bis(trifluoromethylsulfonyl)imide,CCCCCCCC[N+](C)(CCCCCCCC)CCCCCCCC.C(F)(F)(F)S(=O)(=O)[N-]S(=O)(=O)C(F)(F)F,C[N+](CCCCCCCC)(CCCCCCCC)CCCCCCCC.FC(F)(F)S([N-]S(C(F)(F)F)(=O)=O)(=O)=O,15,1,286,15
343.15,0.1,0.1242,Training,methyltrioctylammonium bis(trifluoromethylsulfonyl)imide,CCCCCCCC[N+](C)(CCCCCCCC)CCCCCCCC.C(F)(F)(F)S(=O)(=O)[N-]S(=O)(=O)C(F)(F)F,C(CCCCC[N+](CCCCCCCC)(CCCCCCCC)C)CC.FC(S(=O)([N-]S(C(F)(F)F)(=O)=O)=O)(F)F,15,1,286,15
343.15,0.1,0.1242,Training,methyltrioctylammonium bis(trifluoromethylsulfonyl)imide,CCCCCCCC[N+](C)(CCCCCCCC)CCCCCCCC.C(F)(F)(F)S(=O)(=O)[N-]S(=O)(=O)C(F)(F)F,CCCCCCCC[N+](CCCCCCCC)(CCCCCCCC)C.S([N-]S(=O)(=O)C(F)(F)F)(=O)(C(F)(F)F)=O,15,1,286,15