T/K,P/MPa,TC/W m-1 K-1,Data type,Name,SMILES,Normalized SMILES,index,P/bar,RANDOM,IL
285.65,0.1,0.139,Training,trihexyltetradecylphosphonium bis(trifluoromethylsulfonyl)imide,CCCCCCCCCCCCCC[P+](CCCCCC)(CCCCCC)CCCCCC.C(F)(F)(F)S(=O)(=O)[N-]S(=O)(=O)C(F)(F)F,CCCCCCCCCCCCCC[P+](CCCCCC)(CCCCCC)CCCCCC.[N-](S(=O)(=O)C(F)(F)F)S(=O)(=O)C(F)(F)F,17,1,297,17
285.65,0.1,0.139,Training,trihexyltetradecylphosphonium bis(trifluoromethylsulfonyl)imide,CCCCCCCCCCCCCC[P+](CCCCCC)(CCCCCC)CCCCCC.C(F)(F)(F)S(=O)(=O)[N-]S(=O)(=O)C(F)(F)F,C(CC)CCC[P+](CCCCCC)(CCCCCC)CCCCCCCCCCCCCC.FC(F)(F)S([N-]S(C(F)(F)F)(=O)=O)(=O)=O,17,1,297,17
293.14,0.1,0.138,Training,trihexyltetradecylphosphonium bis(trifluoromethylsulfonyl)imide,CCCCCCCCCCCCCC[P+](CCCCCC)(CCCCCC)CCCCCC.C(F)(F)(F)S(=O)(=O)[N-]S(=O)(=O)C(F)(F)F,CCCCCCCCCCCCCC[P+](CCCCCC)(CCCCCC)CCCCCC.O=S(=O)([N-]S(=O)(=O)C(F)(F)F)C(F)(F)F,17,1,298,17
293.14,0.1,0.138,Training,trihexyltetradecylphosphonium bis(trifluoromethylsulfonyl)imide,CCCCCCCCCCCCCC[P+](CCCCCC)(CCCCCC)CCCCCC.C(F)(F)(F)S(=O)(=O)[N-]S(=O)(=O)C(F)(F)F,C(CCCCCCCCCC)CCC[P+](CCCCCC)(CCCCCC)CCCCCC.S([N-]S(=O)(=O)C(F)(F)F)(C(F)(F)F)(=O)=O,17,1,298,17
293.14,0.1,0.138,Training,trihexyltetradecylphosphonium bis(trifluoromethylsulfonyl)imide,CCCCCCCCCCCCCC[P+](CCCCCC)(CCCCCC)CCCCCC.C(F)(F)(F)S(=O)(=O)[N-]S(=O)(=O)C(F)(F)F,C(C)CCCC[P+](CCCCCCCCCCCCCC)(CCCCCC)CCCCCC.O=S([N-]S(=O)(C(F)(F)F)=O)(C(F)(F)F)=O,17,1,298,17
293.14,0.1,0.138,Training,trihexyltetradecylphosphonium bis(trifluoromethylsulfonyl)imide,CCCCCCCCCCCCCC[P+](CCCCCC)(CCCCCC)CCCCCC.C(F)(F)(F)S(=O)(=O)[N-]S(=O)(=O)C(F)(F)F,C(CCCCCCCCC)CCCC[P+](CCCCCC)(CCCCCC)CCCCCC.FC(F)(F)S([N-]S(=O)(=O)C(F)(F)F)(=O)=O,17,1,298,17
293.14,0.1,0.138,Training,trihexyltetradecylphosphonium bis(trifluoromethylsulfonyl)imide,CCCCCCCCCCCCCC[P+](CCCCCC)(CCCCCC)CCCCCC.C(F)(F)(F)S(=O)(=O)[N-]S(=O)(=O)C(F)(F)F,C(CC[P+](CCCCCC)(CCCCCC)CCCCCC)CCCCCCCCCCC.FC(F)(F)S(=O)(=O)[N-]S(C(F)(F)F)(=O)=O,17,1,298,17
293.14,0.1,0.138,Training,trihexyltetradecylphosphonium bis(trifluoromethylsulfonyl)imide,CCCCCCCCCCCCCC[P+](CCCCCC)(CCCCCC)CCCCCC.C(F)(F)(F)S(=O)(=O)[N-]S(=O)(=O)C(F)(F)F,C(CCCCCCCCCC)CCC[P+](CCCCCC)(CCCCCC)CCCCCC.FC(F)(F)S(=O)([N-]S(C(F)(F)F)(=O)=O)=O,17,1,298,17
293.14,0.1,0.138,Training,trihexyltetradecylphosphonium bis(trifluoromethylsulfonyl)imide,CCCCCCCCCCCCCC[P+](CCCCCC)(CCCCCC)CCCCCC.C(F)(F)(F)S(=O)(=O)[N-]S(=O)(=O)C(F)(F)F,C(CCCCCCCC)CCCCC[P+](CCCCCC)(CCCCCC)CCCCCC.FC(S([N-]S(=O)(=O)C(F)(F)F)(=O)=O)(F)F,17,1,298,17
293.14,0.1,0.138,Training,trihexyltetradecylphosphonium bis(trifluoromethylsulfonyl)imide,CCCCCCCCCCCCCC[P+](CCCCCC)(CCCCCC)CCCCCC.C(F)(F)(F)S(=O)(=O)[N-]S(=O)(=O)C(F)(F)F,C(C[P+](CCCCCC)(CCCCCCCCCCCCCC)CCCCCC)CCCC.O=S([N-]S(=O)(=O)C(F)(F)F)(C(F)(F)F)=O,17,1,298,17
293.14,0.1,0.138,Training,trihexyltetradecylphosphonium bis(trifluoromethylsulfonyl)imide,CCCCCCCCCCCCCC[P+](CCCCCC)(CCCCCC)CCCCCC.C(F)(F)(F)S(=O)(=O)[N-]S(=O)(=O)C(F)(F)F,C(CCCC[P+](CCCCCC)(CCCCCC)CCCCCC)CCCCCCCCC.FC(S(=O)([N-]S(=O)(C(F)(F)F)=O)=O)(F)F,17,1,298,17
293.14,0.1,0.138,Training,trihexyltetradecylphosphonium bis(trifluoromethylsulfonyl)imide,CCCCCCCCCCCCCC[P+](CCCCCC)(CCCCCC)CCCCCC.C(F)(F)(F)S(=O)(=O)[N-]S(=O)(=O)C(F)(F)F,C(CCC[P+](CCCCCC)(CCCCCCCCCCCCCC)CCCCCC)CC.C(S(=O)([N-]S(=O)(C(F)(F)F)=O)=O)(F)(F)F,17,1,298,17
297.72,0.1,0.137,Training,trihexyltetradecylphosphonium bis(trifluoromethylsulfonyl)imide,CCCCCCCCCCCCCC[P+](CCCCCC)(CCCCCC)CCCCCC.C(F)(F)(F)S(=O)(=O)[N-]S(=O)(=O)C(F)(F)F,CCCCCCCCCCCCCC[P+](CCCCCC)(CCCCCC)CCCCCC.O=S(=O)([N-]S(=O)(=O)C(F)(F)F)C(F)(F)F,17,1,299,17
297.72,0.1,0.137,Training,trihexyltetradecylphosphonium bis(trifluoromethylsulfonyl)imide,CCCCCCCCCCCCCC[P+](CCCCCC)(CCCCCC)CCCCCC.C(F)(F)(F)S(=O)(=O)[N-]S(=O)(=O)C(F)(F)F,C(CCCC)C[P+](CCCCCC)(CCCCCC)CCCCCCCCCCCCCC.C(F)(F)(S(=O)(=O)[N-]S(=O)(=O)C(F)(F)F)F,17,1,299,17
297.72,0.1,0.137,Training,trihexyltetradecylphosphonium bis(trifluoromethylsulfonyl)imide,CCCCCCCCCCCCCC[P+](CCCCCC)(CCCCCC)CCCCCC.C(F)(F)(F)S(=O)(=O)[N-]S(=O)(=O)C(F)(F)F,C(CCCCCCCCCCCCC)[P+](CCCCCC)(CCCCCC)CCCCCC.FC(S([N-]S(=O)(=O)C(F)(F)F)(=O)=O)(F)F,17,1,299,17
297.72,0.1,0.137,Training,trihexyltetradecylphosphonium bis(trifluoromethylsulfonyl)imide,CCCCCCCCCCCCCC[P+](CCCCCC)(CCCCCC)CCCCCC.C(F)(F)(F)S(=O)(=O)[N-]S(=O)(=O)C(F)(F)F,C(CCC)CC[P+](CCCCCCCCCCCCCC)(CCCCCC)CCCCCC.FC(F)(S(=O)([N-]S(C(F)(F)F)(=O)=O)=O)F,17,1,299,17
297.72,0.1,0.137,Training,trihexyltetradecylphosphonium bis(trifluoromethylsulfonyl)imide,CCCCCCCCCCCCCC[P+](CCCCCC)(CCCCCC)CCCCCC.C(F)(F)(F)S(=O)(=O)[N-]S(=O)(=O)C(F)(F)F,C(C[P+](CCCCCC)(CCCCCC)CCCCCC)CCCCCCCCCCCC.O=S(C(F)(F)F)([N-]S(=O)(=O)C(F)(F)F)=O,17,1,299,17
297.72,0.1,0.137,Training,trihexyltetradecylphosphonium bis(trifluoromethylsulfonyl)imide,CCCCCCCCCCCCCC[P+](CCCCCC)(CCCCCC)CCCCCC.C(F)(F)(F)S(=O)(=O)[N-]S(=O)(=O)C(F)(F)F,C([P+](CCCCCC)(CCCCCC)CCCCCCCCCCCCCC)CCCCC.O=S(C(F)(F)F)([N-]S(=O)(C(F)(F)F)=O)=O,17,1,299,17
297.72,0.1,0.137,Training,trihexyltetradecylphosphonium bis(trifluoromethylsulfonyl)imide,CCCCCCCCCCCCCC[P+](CCCCCC)(CCCCCC)CCCCCC.C(F)(F)(F)S(=O)(=O)[N-]S(=O)(=O)C(F)(F)F,C(C)CCCC[P+](CCCCCCCCCCCCCC)(CCCCCC)CCCCCC.FC(F)(F)S([N-]S(C(F)(F)F)(=O)=O)(=O)=O,17,1,299,17
297.72,0.1,0.137,Training,trihexyltetradecylphosphonium bis(trifluoromethylsulfonyl)imide,CCCCCCCCCCCCCC[P+](CCCCCC)(CCCCCC)CCCCCC.C(F)(F)(F)S(=O)(=O)[N-]S(=O)(=O)C(F)(F)F,C(S(=O)([N-]S(=O)(=O)C(F)(F)F)=O)(F)(F)F.C([P+](CCCCCC)(CCCCCCCCCCCCCC)CCCCCC)CCCCC,17,1,299,17
297.72,0.1,0.137,Training,trihexyltetradecylphosphonium bis(trifluoromethylsulfonyl)imide,CCCCCCCCCCCCCC[P+](CCCCCC)(CCCCCC)CCCCCC.C(F)(F)(F)S(=O)(=O)[N-]S(=O)(=O)C(F)(F)F,C(CCCC[P+](CCCCCC)(CCCCCCCCCCCCCC)CCCCCC)C.S(C(F)(F)F)(=O)(=O)[N-]S(=O)(=O)C(F)(F)F,17,1,299,17
297.72,0.1,0.137,Training,trihexyltetradecylphosphonium bis(trifluoromethylsulfonyl)imide,CCCCCCCCCCCCCC[P+](CCCCCC)(CCCCCC)CCCCCC.C(F)(F)(F)S(=O)(=O)[N-]S(=O)(=O)C(F)(F)F,C(CC[P+](CCCCCC)(CCCCCCCCCCCCCC)CCCCCC)CCC.O=S(=O)([N-]S(=O)(=O)C(F)(F)F)C(F)(F)F,17,1,299,17
302.37,0.1,0.137,Training,trihexyltetradecylphosphonium bis(trifluoromethylsulfonyl)imide,CCCCCCCCCCCCCC[P+](CCCCCC)(CCCCCC)CCCCCC.C(F)(F)(F)S(=O)(=O)[N-]S(=O)(=O)C(F)(F)F,CCCCCCCCCCCCCC[P+](CCCCCC)(CCCCCC)CCCCCC.O=S(=O)([N-]S(=O)(=O)C(F)(F)F)C(F)(F)F,17,1,300,17
302.37,0.1,0.137,Training,trihexyltetradecylphosphonium bis(trifluoromethylsulfonyl)imide,CCCCCCCCCCCCCC[P+](CCCCCC)(CCCCCC)CCCCCC.C(F)(F)(F)S(=O)(=O)[N-]S(=O)(=O)C(F)(F)F,C(CCCCCCCCC[P+](CCCCCC)(CCCCCC)CCCCCC)CCCC.O=S([N-]S(=O)(C(F)(F)F)=O)(=O)C(F)(F)F,17,1,300,17
302.37,0.1,0.137,Training,trihexyltetradecylphosphonium bis(trifluoromethylsulfonyl)imide,CCCCCCCCCCCCCC[P+](CCCCCC)(CCCCCC)CCCCCC.C(F)(F)(F)S(=O)(=O)[N-]S(=O)(=O)C(F)(F)F,C(CC[P+](CCCCCCCCCCCCCC)(CCCCCC)CCCCCC)CCC.O=S(=O)(C(F)(F)F)[N-]S(C(F)(F)F)(=O)=O,17,1,300,17
302.37,0.1,0.137,Training,trihexyltetradecylphosphonium bis(trifluoromethylsulfonyl)imide,CCCCCCCCCCCCCC[P+](CCCCCC)(CCCCCC)CCCCCC.C(F)(F)(F)S(=O)(=O)[N-]S(=O)(=O)C(F)(F)F,C(C[P+](CCCCCC)(CCCCCC)CCCCCCCCCCCCCC)CCCC.FC(F)(F)S([N-]S(C(F)(F)F)(=O)=O)(=O)=O,17,1,300,17
302.37,0.1,0.137,Training,trihexyltetradecylphosphonium bis(trifluoromethylsulfonyl)imide,CCCCCCCCCCCCCC[P+](CCCCCC)(CCCCCC)CCCCCC.C(F)(F)(F)S(=O)(=O)[N-]S(=O)(=O)C(F)(F)F,C(CCCCCCCCCCCC)C[P+](CCCCCC)(CCCCCC)CCCCCC.O=S(C(F)(F)F)([N-]S(=O)(C(F)(F)F)=O)=O,17,1,300,17
302.37,0.1,0.137,Training,trihexyltetradecylphosphonium bis(trifluoromethylsulfonyl)imide,CCCCCCCCCCCCCC[P+](CCCCCC)(CCCCCC)CCCCCC.C(F)(F)(F)S(=O)(=O)[N-]S(=O)(=O)C(F)(F)F,C(CCCC)C[P+](CCCCCCCCCCCCCC)(CCCCCC)CCCCCC.S(=O)(C(F)(F)F)(=O)[N-]S(=O)(C(F)(F)F)=O,17,1,300,17
302.37,0.1,0.137,Training,trihexyltetradecylphosphonium bis(trifluoromethylsulfonyl)imide,CCCCCCCCCCCCCC[P+](CCCCCC)(CCCCCC)CCCCCC.C(F)(F)(F)S(=O)(=O)[N-]S(=O)(=O)C(F)(F)F,C(CC)CCC[P+](CCCCCCCCCCCCCC)(CCCCCC)CCCCCC.FC(F)(S(=O)(=O)[N-]S(=O)(C(F)(F)F)=O)F,17,1,300,17
302.37,0.1,0.137,Training,trihexyltetradecylphosphonium bis(trifluoromethylsulfonyl)imide,CCCCCCCCCCCCCC[P+](CCCCCC)(CCCCCC)CCCCCC.C(F)(F)(F)S(=O)(=O)[N-]S(=O)(=O)C(F)(F)F,CCCCCC[P+](CCCCCC)(CCCCCC)CCCCCCCCCCCCCC.FC(F)(F)S(=O)([N-]S(=O)(=O)C(F)(F)F)=O,17,1,300,17
302.37,0.1,0.137,Training,trihexyltetradecylphosphonium bis(trifluoromethylsulfonyl)imide,CCCCCCCCCCCCCC[P+](CCCCCC)(CCCCCC)CCCCCC.C(F)(F)(F)S(=O)(=O)[N-]S(=O)(=O)C(F)(F)F,C(CCCC)CCCCCCCCC[P+](CCCCCC)(CCCCCC)CCCCCC.[N-](S(C(F)(F)F)(=O)=O)S(=O)(C(F)(F)F)=O,17,1,300,17
302.37,0.1,0.137,Training,trihexyltetradecylphosphonium bis(trifluoromethylsulfonyl)imide,CCCCCCCCCCCCCC[P+](CCCCCC)(CCCCCC)CCCCCC.C(F)(F)(F)S(=O)(=O)[N-]S(=O)(=O)C(F)(F)F,C(C)CCCC[P+](CCCCCC)(CCCCCC)CCCCCCCCCCCCCC.FC(F)(S(=O)([N-]S(=O)(C(F)(F)F)=O)=O)F,17,1,300,17
313.04,0.1,0.135,Training,trihexyltetradecylphosphonium bis(trifluoromethylsulfonyl)imide,CCCCCCCCCCCCCC[P+](CCCCCC)(CCCCCC)CCCCCC.C(F)(F)(F)S(=O)(=O)[N-]S(=O)(=O)C(F)(F)F,CCCCCCCCCCCCCC[P+](CCCCCC)(CCCCCC)CCCCCC.O=S(=O)([N-]S(=O)(=O)C(F)(F)F)C(F)(F)F,17,1,301,17
313.04,0.1,0.135,Training,trihexyltetradecylphosphonium bis(trifluoromethylsulfonyl)imide,CCCCCCCCCCCCCC[P+](CCCCCC)(CCCCCC)CCCCCC.C(F)(F)(F)S(=O)(=O)[N-]S(=O)(=O)C(F)(F)F,C(CCCC[P+](CCCCCCCCCCCCCC)(CCCCCC)CCCCCC)C.FC(S([N-]S(=O)(C(F)(F)F)=O)(=O)=O)(F)F,17,1,301,17
313.04,0.1,0.135,Training,trihexyltetradecylphosphonium bis(trifluoromethylsulfonyl)imide,CCCCCCCCCCCCCC[P+](CCCCCC)(CCCCCC)CCCCCC.C(F)(F)(F)S(=O)(=O)[N-]S(=O)(=O)C(F)(F)F,C(CCC[P+](CCCCCCCCCCCCCC)(CCCCCC)CCCCCC)CC.FC(F)(S(=O)([N-]S(=O)(C(F)(F)F)=O)=O)F,17,1,301,17
313.04,0.1,0.135,Training,trihexyltetradecylphosphonium bis(trifluoromethylsulfonyl)imide,CCCCCCCCCCCCCC[P+](CCCCCC)(CCCCCC)CCCCCC.C(F)(F)(F)S(=O)(=O)[N-]S(=O)(=O)C(F)(F)F,C(CCCC[P+](CCCCCC)(CCCCCC)CCCCCCCCCCCCCC)C.C(F)(F)(S([N-]S(=O)(=O)C(F)(F)F)(=O)=O)F,17,1,301,17
313.04,0.1,0.135,Training,trihexyltetradecylphosphonium bis(trifluoromethylsulfonyl)imide,CCCCCCCCCCCCCC[P+](CCCCCC)(CCCCCC)CCCCCC.C(F)(F)(F)S(=O)(=O)[N-]S(=O)(=O)C(F)(F)F,C(CC[P+](CCCCCC)(CCCCCCCCCCCCCC)CCCCCC)CCC.O=S(=O)(C(F)(F)F)[N-]S(C(F)(F)F)(=O)=O,17,1,301,17
313.04,0.1,0.135,Training,trihexyltetradecylphosphonium bis(trifluoromethylsulfonyl)imide,CCCCCCCCCCCCCC[P+](CCCCCC)(CCCCCC)CCCCCC.C(F)(F)(F)S(=O)(=O)[N-]S(=O)(=O)C(F)(F)F,C(C[P+](CCCCCC)(CCCCCC)CCCCCC)CCCCCCCCCCCC.FC(S(=O)([N-]S(=O)(=O)C(F)(F)F)=O)(F)F,17,1,301,17
313.04,0.1,0.135,Training,trihexyltetradecylphosphonium bis(trifluoromethylsulfonyl)imide,CCCCCCCCCCCCCC[P+](CCCCCC)(CCCCCC)CCCCCC.C(F)(F)(F)S(=O)(=O)[N-]S(=O)(=O)C(F)(F)F,C(CCCCCC[P+](CCCCCC)(CCCCCC)CCCCCC)CCCCCCC.O=S(C(F)(F)F)([N-]S(=O)(C(F)(F)F)=O)=O,17,1,301,17
313.04,0.1,0.135,Training,trihexyltetradecylphosphonium bis(trifluoromethylsulfonyl)imide,CCCCCCCCCCCCCC[P+](CCCCCC)(CCCCCC)CCCCCC.C(F)(F)(F)S(=O)(=O)[N-]S(=O)(=O)C(F)(F)F,C(CCCC[P+](CCCCCC)(CCCCCC)CCCCCCCCCCCCCC)C.O=S([N-]S(C(F)(F)F)(=O)=O)(C(F)(F)F)=O,17,1,301,17
313.04,0.1,0.135,Training,trihexyltetradecylphosphonium bis(trifluoromethylsulfonyl)imide,CCCCCCCCCCCCCC[P+](CCCCCC)(CCCCCC)CCCCCC.C(F)(F)(F)S(=O)(=O)[N-]S(=O)(=O)C(F)(F)F,C(CCCCCCC[P+](CCCCCC)(CCCCCC)CCCCCC)CCCCCC.S([N-]S(=O)(C(F)(F)F)=O)(C(F)(F)F)(=O)=O,17,1,301,17
313.04,0.1,0.135,Training,trihexyltetradecylphosphonium bis(trifluoromethylsulfonyl)imide,CCCCCCCCCCCCCC[P+](CCCCCC)(CCCCCC)CCCCCC.C(F)(F)(F)S(=O)(=O)[N-]S(=O)(=O)C(F)(F)F,C(CC[P+](CCCCCC)(CCCCCC)CCCCCCCCCCCCCC)CCC.O=S(C(F)(F)F)(=O)[N-]S(=O)(C(F)(F)F)=O,17,1,301,17
323.58,0.1,0.134,Training,trihexyltetradecylphosphonium bis(trifluoromethylsulfonyl)imide,CCCCCCCCCCCCCC[P+](CCCCCC)(CCCCCC)CCCCCC.C(F)(F)(F)S(=O)(=O)[N-]S(=O)(=O)C(F)(F)F,CCCCCCCCCCCCCC[P+](CCCCCC)(CCCCCC)CCCCCC.O=S(=O)([N-]S(=O)(=O)C(F)(F)F)C(F)(F)F,17,1,302,17
323.58,0.1,0.134,Training,trihexyltetradecylphosphonium bis(trifluoromethylsulfonyl)imide,CCCCCCCCCCCCCC[P+](CCCCCC)(CCCCCC)CCCCCC.C(F)(F)(F)S(=O)(=O)[N-]S(=O)(=O)C(F)(F)F,C(CCC)CC[P+](CCCCCC)(CCCCCCCCCCCCCC)CCCCCC.O=S(=O)(C(F)(F)F)[N-]S(C(F)(F)F)(=O)=O,17,1,302,17
323.58,0.1,0.134,Training,trihexyltetradecylphosphonium bis(trifluoromethylsulfonyl)imide,CCCCCCCCCCCCCC[P+](CCCCCC)(CCCCCC)CCCCCC.C(F)(F)(F)S(=O)(=O)[N-]S(=O)(=O)C(F)(F)F,C(CCCCCCCCCC)CCC[P+](CCCCCC)(CCCCCC)CCCCCC.C(S([N-]S(=O)(=O)C(F)(F)F)(=O)=O)(F)(F)F,17,1,302,17
323.58,0.1,0.134,Training,trihexyltetradecylphosphonium bis(trifluoromethylsulfonyl)imide,CCCCCCCCCCCCCC[P+](CCCCCC)(CCCCCC)CCCCCC.C(F)(F)(F)S(=O)(=O)[N-]S(=O)(=O)C(F)(F)F,C(CCCCCCCCCCC)CC[P+](CCCCCC)(CCCCCC)CCCCCC.O=S(C(F)(F)F)(=O)[N-]S(=O)(C(F)(F)F)=O,17,1,302,17
323.58,0.1,0.134,Training,trihexyltetradecylphosphonium bis(trifluoromethylsulfonyl)imide,CCCCCCCCCCCCCC[P+](CCCCCC)(CCCCCC)CCCCCC.C(F)(F)(F)S(=O)(=O)[N-]S(=O)(=O)C(F)(F)F,C(C)CCCC[P+](CCCCCC)(CCCCCC)CCCCCCCCCCCCCC.O=S(C(F)(F)F)([N-]S(C(F)(F)F)(=O)=O)=O,17,1,302,17
323.58,0.1,0.134,Training,trihexyltetradecylphosphonium bis(trifluoromethylsulfonyl)imide,CCCCCCCCCCCCCC[P+](CCCCCC)(CCCCCC)CCCCCC.C(F)(F)(F)S(=O)(=O)[N-]S(=O)(=O)C(F)(F)F,C(CCC)CC[P+](CCCCCC)(CCCCCCCCCCCCCC)CCCCCC.C(S(=O)([N-]S(=O)(=O)C(F)(F)F)=O)(F)(F)F,17,1,302,17
323.58,0.1,0.134,Training,trihexyltetradecylphosphonium bis(trifluoromethylsulfonyl)imide,CCCCCCCCCCCCCC[P+](CCCCCC)(CCCCCC)CCCCCC.C(F)(F)(F)S(=O)(=O)[N-]S(=O)(=O)C(F)(F)F,C(CC[P+](CCCCCC)(CCCCCC)CCCCCC)CCCCCCCCCCC.O=S(C(F)(F)F)(=O)[N-]S(=O)(C(F)(F)F)=O,17,1,302,17
323.58,0.1,0.134,Training,trihexyltetradecylphosphonium bis(trifluoromethylsulfonyl)imide,CCCCCCCCCCCCCC[P+](CCCCCC)(CCCCCC)CCCCCC.C(F)(F)(F)S(=O)(=O)[N-]S(=O)(=O)C(F)(F)F,C(CCC[P+](CCCCCC)(CCCCCC)CCCCCC)CCCCCCCCCC.O=S(=O)(C(F)(F)F)[N-]S(=O)(=O)C(F)(F)F,17,1,302,17
323.58,0.1,0.134,Training,trihexyltetradecylphosphonium bis(trifluoromethylsulfonyl)imide,CCCCCCCCCCCCCC[P+](CCCCCC)(CCCCCC)CCCCCC.C(F)(F)(F)S(=O)(=O)[N-]S(=O)(=O)C(F)(F)F,C([P+](CCCCCC)(CCCCCCCCCCCCCC)CCCCCC)CCCCC.FC(F)(F)S(=O)(=O)[N-]S(=O)(C(F)(F)F)=O,17,1,302,17
323.58,0.1,0.134,Training,trihexyltetradecylphosphonium bis(trifluoromethylsulfonyl)imide,CCCCCCCCCCCCCC[P+](CCCCCC)(CCCCCC)CCCCCC.C(F)(F)(F)S(=O)(=O)[N-]S(=O)(=O)C(F)(F)F,C(CC)CCC[P+](CCCCCC)(CCCCCC)CCCCCCCCCCCCCC.FC(S(=O)([N-]S(C(F)(F)F)(=O)=O)=O)(F)F,17,1,302,17
333.55,0.1,0.135,Training,trihexyltetradecylphosphonium bis(trifluoromethylsulfonyl)imide,CCCCCCCCCCCCCC[P+](CCCCCC)(CCCCCC)CCCCCC.C(F)(F)(F)S(=O)(=O)[N-]S(=O)(=O)C(F)(F)F,CCCCCCCCCCCCCC[P+](CCCCCC)(CCCCCC)CCCCCC.O=S(=O)([N-]S(=O)(=O)C(F)(F)F)C(F)(F)F,17,1,303,17
333.55,0.1,0.135,Training,trihexyltetradecylphosphonium bis(trifluoromethylsulfonyl)imide,CCCCCCCCCCCCCC[P+](CCCCCC)(CCCCCC)CCCCCC.C(F)(F)(F)S(=O)(=O)[N-]S(=O)(=O)C(F)(F)F,C(CC)CCC[P+](CCCCCC)(CCCCCCCCCCCCCC)CCCCCC.FC(F)(S([N-]S(=O)(C(F)(F)F)=O)(=O)=O)F,17,1,303,17
333.55,0.1,0.135,Training,trihexyltetradecylphosphonium bis(trifluoromethylsulfonyl)imide,CCCCCCCCCCCCCC[P+](CCCCCC)(CCCCCC)CCCCCC.C(F)(F)(F)S(=O)(=O)[N-]S(=O)(=O)C(F)(F)F,C([P+](CCCCCC)(CCCCCC)CCCCCC)CCCCCCCCCCCCC.FC(F)(F)S(=O)(=O)[N-]S(=O)(=O)C(F)(F)F,17,1,303,17
333.55,0.1,0.135,Training,trihexyltetradecylphosphonium bis(trifluoromethylsulfonyl)imide,CCCCCCCCCCCCCC[P+](CCCCCC)(CCCCCC)CCCCCC.C(F)(F)(F)S(=O)(=O)[N-]S(=O)(=O)C(F)(F)F,C(CCCC[P+](CCCCCC)(CCCCCC)CCCCCC)CCCCCCCCC.C(F)(F)(S(=O)(=O)[N-]S(C(F)(F)F)(=O)=O)F,17,1,303,17
333.55,0.1,0.135,Training,trihexyltetradecylphosphonium bis(trifluoromethylsulfonyl)imide,CCCCCCCCCCCCCC[P+](CCCCCC)(CCCCCC)CCCCCC.C(F)(F)(F)S(=O)(=O)[N-]S(=O)(=O)C(F)(F)F,C(CCCC[P+](CCCCCC)(CCCCCC)CCCCCC)CCCCCCCCC.C(F)(F)(F)S(=O)(=O)[N-]S(=O)(C(F)(F)F)=O,17,1,303,17
333.55,0.1,0.135,Training,trihexyltetradecylphosphonium bis(trifluoromethylsulfonyl)imide,CCCCCCCCCCCCCC[P+](CCCCCC)(CCCCCC)CCCCCC.C(F)(F)(F)S(=O)(=O)[N-]S(=O)(=O)C(F)(F)F,C(CCCCCCCCCC)CCC[P+](CCCCCC)(CCCCCC)CCCCCC.[N-](S(C(F)(F)F)(=O)=O)S(C(F)(F)F)(=O)=O,17,1,303,17
333.55,0.1,0.135,Training,trihexyltetradecylphosphonium bis(trifluoromethylsulfonyl)imide,CCCCCCCCCCCCCC[P+](CCCCCC)(CCCCCC)CCCCCC.C(F)(F)(F)S(=O)(=O)[N-]S(=O)(=O)C(F)(F)F,C(CCCCCCCCCCC)CC[P+](CCCCCC)(CCCCCC)CCCCCC.FC(F)(F)S([N-]S(C(F)(F)F)(=O)=O)(=O)=O,17,1,303,17
333.55,0.1,0.135,Training,trihexyltetradecylphosphonium bis(trifluoromethylsulfonyl)imide,CCCCCCCCCCCCCC[P+](CCCCCC)(CCCCCC)CCCCCC.C(F)(F)(F)S(=O)(=O)[N-]S(=O)(=O)C(F)(F)F,C([P+](CCCCCC)(CCCCCC)CCCCCC)CCCCCCCCCCCCC.O=S(=O)([N-]S(=O)(C(F)(F)F)=O)C(F)(F)F,17,1,303,17
333.55,0.1,0.135,Training,trihexyltetradecylphosphonium bis(trifluoromethylsulfonyl)imide,CCCCCCCCCCCCCC[P+](CCCCCC)(CCCCCC)CCCCCC.C(F)(F)(F)S(=O)(=O)[N-]S(=O)(=O)C(F)(F)F,C(CCCCC[P+](CCCCCC)(CCCCCC)CCCCCC)CCCCCCCC.O=S([N-]S(=O)(=O)C(F)(F)F)(=O)C(F)(F)F,17,1,303,17
333.55,0.1,0.135,Training,trihexyltetradecylphosphonium bis(trifluoromethylsulfonyl)imide,CCCCCCCCCCCCCC[P+](CCCCCC)(CCCCCC)CCCCCC.C(F)(F)(F)S(=O)(=O)[N-]S(=O)(=O)C(F)(F)F,C(CC)CCC[P+](CCCCCCCCCCCCCC)(CCCCCC)CCCCCC.C(F)(F)(S(=O)([N-]S(C(F)(F)F)(=O)=O)=O)F,17,1,303,17
283.34,0.1,0.157,Training,tributylmethylphosphonium methylsulfate,CCCC[P+](C)(CCCC)CCCC.COS(=O)(=O)[O-],CCCC[P+](C)(CCCC)CCCC.COS(=O)(=O)[O-],18,1,304,18
283.34,0.1,0.157,Training,tributylmethylphosphonium methylsulfate,CCCC[P+](C)(CCCC)CCCC.COS(=O)(=O)[O-],CCCC[P+](CCCC)(CCCC)C.COS(=O)([O-])=O,18,1,304,18
283.34,0.1,0.157,Training,tributylmethylphosphonium methylsulfate,CCCC[P+](C)(CCCC)CCCC.COS(=O)(=O)[O-],C([P+](CCCC)(C)CCCC)CCC.O(S(=O)([O-])=O)C,18,1,304,18
283.34,0.1,0.157,Training,tributylmethylphosphonium methylsulfate,CCCC[P+](C)(CCCC)CCCC.COS(=O)(=O)[O-],C(CC[P+](CCCC)(CCCC)C)C.[O-]S(OC)(=O)=O,18,1,304,18
283.34,0.1,0.157,Training,tributylmethylphosphonium methylsulfate,CCCC[P+](C)(CCCC)CCCC.COS(=O)(=O)[O-],O(C)S(=O)([O-])=O.[P+](CCCC)(CCCC)(C)CCCC,18,1,304,18
283.34,0.1,0.157,Training,tributylmethylphosphonium methylsulfate,CCCC[P+](C)(CCCC)CCCC.COS(=O)(=O)[O-],O=S([O-])(=O)OC.[P+](CCCC)(C)(CCCC)CCCC,18,1,304,18
283.34,0.1,0.157,Training,tributylmethylphosphonium methylsulfate,CCCC[P+](C)(CCCC)CCCC.COS(=O)(=O)[O-],CCCC[P+](C)(CCCC)CCCC.O=S([O-])(=O)OC,18,1,304,18
283.34,0.1,0.157,Training,tributylmethylphosphonium methylsulfate,CCCC[P+](C)(CCCC)CCCC.COS(=O)(=O)[O-],O(S(=O)(=O)[O-])C.[P+](C)(CCCC)(CCCC)CCCC,18,1,304,18
283.34,0.1,0.157,Training,tributylmethylphosphonium methylsulfate,CCCC[P+](C)(CCCC)CCCC.COS(=O)(=O)[O-],C(C[P+](CCCC)(C)CCCC)CC.[O-]S(=O)(OC)=O,18,1,304,18
283.34,0.1,0.157,Training,tributylmethylphosphonium methylsulfate,CCCC[P+](C)(CCCC)CCCC.COS(=O)(=O)[O-],C[P+](CCCC)(CCCC)CCCC.O(S(=O)(=O)[O-])C,18,1,304,18
293.28,0.1,0.156,Training,tributylmethylphosphonium methylsulfate,CCCC[P+](C)(CCCC)CCCC.COS(=O)(=O)[O-],CCCC[P+](C)(CCCC)CCCC.COS(=O)(=O)[O-],18,1,305,18
293.28,0.1,0.156,Training,tributylmethylphosphonium methylsulfate,CCCC[P+](C)(CCCC)CCCC.COS(=O)(=O)[O-],C([P+](C)(CCCC)CCCC)CCC.[O-]S(OC)(=O)=O,18,1,305,18
293.28,0.1,0.156,Training,tributylmethylphosphonium methylsulfate,CCCC[P+](C)(CCCC)CCCC.COS(=O)(=O)[O-],C(CCC)[P+](CCCC)(C)CCCC.O=S(OC)([O-])=O,18,1,305,18
293.28,0.1,0.156,Training,tributylmethylphosphonium methylsulfate,CCCC[P+](C)(CCCC)CCCC.COS(=O)(=O)[O-],C(CC)C[P+](C)(CCCC)CCCC.[O-]S(=O)(=O)OC,18,1,305,18
293.28,0.1,0.156,Training,tributylmethylphosphonium methylsulfate,CCCC[P+](C)(CCCC)CCCC.COS(=O)(=O)[O-],C(CC)C[P+](C)(CCCC)CCCC.O=S(=O)([O-])OC,18,1,305,18
293.28,0.1,0.156,Training,tributylmethylphosphonium methylsulfate,CCCC[P+](C)(CCCC)CCCC.COS(=O)(=O)[O-],C(CC[P+](CCCC)(CCCC)C)C.O=S(=O)([O-])OC,18,1,305,18
293.28,0.1,0.156,Training,tributylmethylphosphonium methylsulfate,CCCC[P+](C)(CCCC)CCCC.COS(=O)(=O)[O-],C([P+](C)(CCCC)CCCC)CCC.S(OC)(=O)(=O)[O-],18,1,305,18
293.28,0.1,0.156,Training,tributylmethylphosphonium methylsulfate,CCCC[P+](C)(CCCC)CCCC.COS(=O)(=O)[O-],C(CC[P+](CCCC)(C)CCCC)C.O=S([O-])(OC)=O,18,1,305,18
293.28,0.1,0.156,Training,tributylmethylphosphonium methylsulfate,CCCC[P+](C)(CCCC)CCCC.COS(=O)(=O)[O-],C(C[P+](CCCC)(CCCC)C)CC.COS([O-])(=O)=O,18,1,305,18
293.28,0.1,0.156,Training,tributylmethylphosphonium methylsulfate,CCCC[P+](C)(CCCC)CCCC.COS(=O)(=O)[O-],O(S(=O)(=O)[O-])C.[P+](C)(CCCC)(CCCC)CCCC,18,1,305,18
298.36,0.1,0.155,Training,tributylmethylphosphonium methylsulfate,CCCC[P+](C)(CCCC)CCCC.COS(=O)(=O)[O-],CCCC[P+](C)(CCCC)CCCC.COS(=O)(=O)[O-],18,1,306,18