T/K,P/MPa,TC/W m-1 K-1,Data type,Name,SMILES,Normalized SMILES,index,P/bar,RANDOM,IL
353.15,0.1,0.1412,Testing,tetrabutylphosphonium cysteinate,CCCC[P+](CCCC)(CCCC)CCCC.C([C@@H](C(=O)[O-])N)S,C(C)CC[P+](CCCC)(CCCC)CCCC.[C@@H](N)(C([O-])=O)CS,28,1,380,28
353.15,0.1,0.1412,Testing,tetrabutylphosphonium cysteinate,CCCC[P+](CCCC)(CCCC)CCCC.C([C@@H](C(=O)[O-])N)S,C(CCC)[P+](CCCC)(CCCC)CCCC.O=C([O-])[C@@H](N)CS,28,1,380,28
353.15,0.1,0.1412,Testing,tetrabutylphosphonium cysteinate,CCCC[P+](CCCC)(CCCC)CCCC.C([C@@H](C(=O)[O-])N)S,C(C[P+](CCCC)(CCCC)CCCC)CC.SC[C@H](N)C([O-])=O,28,1,380,28
353.15,0.1,0.1412,Testing,tetrabutylphosphonium cysteinate,CCCC[P+](CCCC)(CCCC)CCCC.C([C@@H](C(=O)[O-])N)S,C(CC[P+](CCCC)(CCCC)CCCC)C.[C@@H](CS)(N)C([O-])=O,28,1,380,28
293.0,0.1,0.13,Training,1-ethyl-3-methylimidazolium bis(trifluoromethylsulfonyl)imide,CCN1C=C[N+](=C1)C.C(F)(F)(F)S(=O)(=O)[N-]S(=O)(=O)C(F)(F)F,CCn1cc[n+](C)c1.O=S(=O)([N-]S(=O)(=O)C(F)(F)F)C(F)(F)F,29,1,381,29
293.0,0.1,0.13,Training,1-ethyl-3-methylimidazolium bis(trifluoromethylsulfonyl)imide,CCN1C=C[N+](=C1)C.C(F)(F)(F)S(=O)(=O)[N-]S(=O)(=O)C(F)(F)F,FC(F)(S([N-]S(C(F)(F)F)(=O)=O)(=O)=O)F.c1n(cc[n+]1C)CC,29,1,381,29
293.0,0.1,0.13,Training,1-ethyl-3-methylimidazolium bis(trifluoromethylsulfonyl)imide,CCN1C=C[N+](=C1)C.C(F)(F)(F)S(=O)(=O)[N-]S(=O)(=O)C(F)(F)F,FC(S(=O)(=O)[N-]S(=O)(=O)C(F)(F)F)(F)F.c1n(cc[n+]1C)CC,29,1,381,29
293.0,0.1,0.13,Training,1-ethyl-3-methylimidazolium bis(trifluoromethylsulfonyl)imide,CCN1C=C[N+](=C1)C.C(F)(F)(F)S(=O)(=O)[N-]S(=O)(=O)C(F)(F)F,CCn1cc[n+](c1)C.FC(F)(F)S(=O)([N-]S(=O)(=O)C(F)(F)F)=O,29,1,381,29
293.0,0.1,0.13,Training,1-ethyl-3-methylimidazolium bis(trifluoromethylsulfonyl)imide,CCN1C=C[N+](=C1)C.C(F)(F)(F)S(=O)(=O)[N-]S(=O)(=O)C(F)(F)F,[N-](S(=O)(=O)C(F)(F)F)S(=O)(C(F)(F)F)=O.c1n(CC)c[n+](c1)C,29,1,381,29
293.0,0.1,0.13,Training,1-ethyl-3-methylimidazolium bis(trifluoromethylsulfonyl)imide,CCN1C=C[N+](=C1)C.C(F)(F)(F)S(=O)(=O)[N-]S(=O)(=O)C(F)(F)F,O=S(C(F)(F)F)(=O)[N-]S(=O)(C(F)(F)F)=O.c1[n+](ccn1CC)C,29,1,381,29
293.0,0.1,0.13,Training,1-ethyl-3-methylimidazolium bis(trifluoromethylsulfonyl)imide,CCN1C=C[N+](=C1)C.C(F)(F)(F)S(=O)(=O)[N-]S(=O)(=O)C(F)(F)F,O=S(C(F)(F)F)([N-]S(C(F)(F)F)(=O)=O)=O.c1n(CC)c[n+](C)c1,29,1,381,29
293.0,0.1,0.13,Training,1-ethyl-3-methylimidazolium bis(trifluoromethylsulfonyl)imide,CCN1C=C[N+](=C1)C.C(F)(F)(F)S(=O)(=O)[N-]S(=O)(=O)C(F)(F)F,FC(F)(F)S(=O)(=O)[N-]S(=O)(C(F)(F)F)=O.c1n(c[n+](c1)C)CC,29,1,381,29
293.0,0.1,0.13,Training,1-ethyl-3-methylimidazolium bis(trifluoromethylsulfonyl)imide,CCN1C=C[N+](=C1)C.C(F)(F)(F)S(=O)(=O)[N-]S(=O)(=O)C(F)(F)F,FC(F)(F)S(=O)(=O)[N-]S(C(F)(F)F)(=O)=O.n1(cc[n+](C)c1)CC,29,1,381,29
293.0,0.1,0.13,Training,1-ethyl-3-methylimidazolium bis(trifluoromethylsulfonyl)imide,CCN1C=C[N+](=C1)C.C(F)(F)(F)S(=O)(=O)[N-]S(=O)(=O)C(F)(F)F,C[n+]1cn(CC)cc1.FC(F)(S(=O)([N-]S(=O)(C(F)(F)F)=O)=O)F,29,1,381,29
303.0,0.1,0.13,Testing,1-ethyl-3-methylimidazolium bis(trifluoromethylsulfonyl)imide,CCN1C=C[N+](=C1)C.C(F)(F)(F)S(=O)(=O)[N-]S(=O)(=O)C(F)(F)F,CCn1cc[n+](C)c1.O=S(=O)([N-]S(=O)(=O)C(F)(F)F)C(F)(F)F,29,1,382,29
303.0,0.1,0.13,Testing,1-ethyl-3-methylimidazolium bis(trifluoromethylsulfonyl)imide,CCN1C=C[N+](=C1)C.C(F)(F)(F)S(=O)(=O)[N-]S(=O)(=O)C(F)(F)F,FC(F)(S([N-]S(C(F)(F)F)(=O)=O)(=O)=O)F.n1(cc[n+](C)c1)CC,29,1,382,29
303.0,0.1,0.13,Testing,1-ethyl-3-methylimidazolium bis(trifluoromethylsulfonyl)imide,CCN1C=C[N+](=C1)C.C(F)(F)(F)S(=O)(=O)[N-]S(=O)(=O)C(F)(F)F,FC(F)(F)S(=O)(=O)[N-]S(C(F)(F)F)(=O)=O.[n+]1(cn(CC)cc1)C,29,1,382,29
303.0,0.1,0.13,Testing,1-ethyl-3-methylimidazolium bis(trifluoromethylsulfonyl)imide,CCN1C=C[N+](=C1)C.C(F)(F)(F)S(=O)(=O)[N-]S(=O)(=O)C(F)(F)F,O=S(=O)(C(F)(F)F)[N-]S(C(F)(F)F)(=O)=O.n1(CC)cc[n+](C)c1,29,1,382,29
303.0,0.1,0.13,Testing,1-ethyl-3-methylimidazolium bis(trifluoromethylsulfonyl)imide,CCN1C=C[N+](=C1)C.C(F)(F)(F)S(=O)(=O)[N-]S(=O)(=O)C(F)(F)F,C(F)(S([N-]S(=O)(C(F)(F)F)=O)(=O)=O)(F)F.n1(cc[n+](c1)C)CC,29,1,382,29
303.0,0.1,0.13,Testing,1-ethyl-3-methylimidazolium bis(trifluoromethylsulfonyl)imide,CCN1C=C[N+](=C1)C.C(F)(F)(F)S(=O)(=O)[N-]S(=O)(=O)C(F)(F)F,FC(F)(S(=O)([N-]S(=O)(=O)C(F)(F)F)=O)F.c1cn(c[n+]1C)CC,29,1,382,29
303.0,0.1,0.13,Testing,1-ethyl-3-methylimidazolium bis(trifluoromethylsulfonyl)imide,CCN1C=C[N+](=C1)C.C(F)(F)(F)S(=O)(=O)[N-]S(=O)(=O)C(F)(F)F,CCn1cc[n+](c1)C.O=S(=O)([N-]S(=O)(=O)C(F)(F)F)C(F)(F)F,29,1,382,29
303.0,0.1,0.13,Testing,1-ethyl-3-methylimidazolium bis(trifluoromethylsulfonyl)imide,CCN1C=C[N+](=C1)C.C(F)(F)(F)S(=O)(=O)[N-]S(=O)(=O)C(F)(F)F,S(=O)(=O)(C(F)(F)F)[N-]S(=O)(C(F)(F)F)=O.n1(CC)cc[n+](c1)C,29,1,382,29
303.0,0.1,0.13,Testing,1-ethyl-3-methylimidazolium bis(trifluoromethylsulfonyl)imide,CCN1C=C[N+](=C1)C.C(F)(F)(F)S(=O)(=O)[N-]S(=O)(=O)C(F)(F)F,C[n+]1cn(cc1)CC.FC(F)(F)S(=O)([N-]S(=O)(=O)C(F)(F)F)=O,29,1,382,29
303.0,0.1,0.13,Testing,1-ethyl-3-methylimidazolium bis(trifluoromethylsulfonyl)imide,CCN1C=C[N+](=C1)C.C(F)(F)(F)S(=O)(=O)[N-]S(=O)(=O)C(F)(F)F,C(n1cc[n+](c1)C)C.S(C(F)(F)F)(=O)(=O)[N-]S(C(F)(F)F)(=O)=O,29,1,382,29
313.0,0.1,0.129,Training,1-ethyl-3-methylimidazolium bis(trifluoromethylsulfonyl)imide,CCN1C=C[N+](=C1)C.C(F)(F)(F)S(=O)(=O)[N-]S(=O)(=O)C(F)(F)F,CCn1cc[n+](C)c1.O=S(=O)([N-]S(=O)(=O)C(F)(F)F)C(F)(F)F,29,1,383,29
313.0,0.1,0.129,Training,1-ethyl-3-methylimidazolium bis(trifluoromethylsulfonyl)imide,CCN1C=C[N+](=C1)C.C(F)(F)(F)S(=O)(=O)[N-]S(=O)(=O)C(F)(F)F,FC(F)(S(=O)([N-]S(C(F)(F)F)(=O)=O)=O)F.n1(cc[n+](C)c1)CC,29,1,383,29
313.0,0.1,0.129,Training,1-ethyl-3-methylimidazolium bis(trifluoromethylsulfonyl)imide,CCN1C=C[N+](=C1)C.C(F)(F)(F)S(=O)(=O)[N-]S(=O)(=O)C(F)(F)F,CCn1c[n+](cc1)C.[N-](S(=O)(=O)C(F)(F)F)S(C(F)(F)F)(=O)=O,29,1,383,29
313.0,0.1,0.129,Training,1-ethyl-3-methylimidazolium bis(trifluoromethylsulfonyl)imide,CCN1C=C[N+](=C1)C.C(F)(F)(F)S(=O)(=O)[N-]S(=O)(=O)C(F)(F)F,CCn1cc[n+](c1)C.FC(S(=O)([N-]S(=O)(=O)C(F)(F)F)=O)(F)F,29,1,383,29
313.0,0.1,0.129,Training,1-ethyl-3-methylimidazolium bis(trifluoromethylsulfonyl)imide,CCN1C=C[N+](=C1)C.C(F)(F)(F)S(=O)(=O)[N-]S(=O)(=O)C(F)(F)F,FC(F)(S([N-]S(=O)(=O)C(F)(F)F)(=O)=O)F.c1[n+](cn(CC)c1)C,29,1,383,29
313.0,0.1,0.129,Training,1-ethyl-3-methylimidazolium bis(trifluoromethylsulfonyl)imide,CCN1C=C[N+](=C1)C.C(F)(F)(F)S(=O)(=O)[N-]S(=O)(=O)C(F)(F)F,C(F)(S(=O)(=O)[N-]S(=O)(C(F)(F)F)=O)(F)F.n1(cc[n+](c1)C)CC,29,1,383,29
313.0,0.1,0.129,Training,1-ethyl-3-methylimidazolium bis(trifluoromethylsulfonyl)imide,CCN1C=C[N+](=C1)C.C(F)(F)(F)S(=O)(=O)[N-]S(=O)(=O)C(F)(F)F,FC(F)(F)S(=O)(=O)[N-]S(=O)(C(F)(F)F)=O.n1(CC)cc[n+](c1)C,29,1,383,29
313.0,0.1,0.129,Training,1-ethyl-3-methylimidazolium bis(trifluoromethylsulfonyl)imide,CCN1C=C[N+](=C1)C.C(F)(F)(F)S(=O)(=O)[N-]S(=O)(=O)C(F)(F)F,FC(F)(F)S([N-]S(C(F)(F)F)(=O)=O)(=O)=O.c1cn(CC)c[n+]1C,29,1,383,29
313.0,0.1,0.129,Training,1-ethyl-3-methylimidazolium bis(trifluoromethylsulfonyl)imide,CCN1C=C[N+](=C1)C.C(F)(F)(F)S(=O)(=O)[N-]S(=O)(=O)C(F)(F)F,FC(F)(S(=O)([N-]S(=O)(C(F)(F)F)=O)=O)F.c1n(CC)c[n+](c1)C,29,1,383,29
313.0,0.1,0.129,Training,1-ethyl-3-methylimidazolium bis(trifluoromethylsulfonyl)imide,CCN1C=C[N+](=C1)C.C(F)(F)(F)S(=O)(=O)[N-]S(=O)(=O)C(F)(F)F,FC(S(=O)(=O)[N-]S(C(F)(F)F)(=O)=O)(F)F.n1(cc[n+](c1)C)CC,29,1,383,29
323.0,0.1,0.129,Training,1-ethyl-3-methylimidazolium bis(trifluoromethylsulfonyl)imide,CCN1C=C[N+](=C1)C.C(F)(F)(F)S(=O)(=O)[N-]S(=O)(=O)C(F)(F)F,CCn1cc[n+](C)c1.O=S(=O)([N-]S(=O)(=O)C(F)(F)F)C(F)(F)F,29,1,384,29
323.0,0.1,0.129,Training,1-ethyl-3-methylimidazolium bis(trifluoromethylsulfonyl)imide,CCN1C=C[N+](=C1)C.C(F)(F)(F)S(=O)(=O)[N-]S(=O)(=O)C(F)(F)F,FC(F)(S(=O)(=O)[N-]S(=O)(=O)C(F)(F)F)F.n1(c[n+](C)cc1)CC,29,1,384,29
323.0,0.1,0.129,Training,1-ethyl-3-methylimidazolium bis(trifluoromethylsulfonyl)imide,CCN1C=C[N+](=C1)C.C(F)(F)(F)S(=O)(=O)[N-]S(=O)(=O)C(F)(F)F,FC(F)(S(=O)([N-]S(=O)(C(F)(F)F)=O)=O)F.c1cn(CC)c[n+]1C,29,1,384,29
323.0,0.1,0.129,Training,1-ethyl-3-methylimidazolium bis(trifluoromethylsulfonyl)imide,CCN1C=C[N+](=C1)C.C(F)(F)(F)S(=O)(=O)[N-]S(=O)(=O)C(F)(F)F,S(=O)([N-]S(=O)(=O)C(F)(F)F)(C(F)(F)F)=O.n1(c[n+](cc1)C)CC,29,1,384,29
323.0,0.1,0.129,Training,1-ethyl-3-methylimidazolium bis(trifluoromethylsulfonyl)imide,CCN1C=C[N+](=C1)C.C(F)(F)(F)S(=O)(=O)[N-]S(=O)(=O)C(F)(F)F,S(=O)(=O)([N-]S(C(F)(F)F)(=O)=O)C(F)(F)F.[n+]1(C)cn(CC)cc1,29,1,384,29
323.0,0.1,0.129,Training,1-ethyl-3-methylimidazolium bis(trifluoromethylsulfonyl)imide,CCN1C=C[N+](=C1)C.C(F)(F)(F)S(=O)(=O)[N-]S(=O)(=O)C(F)(F)F,C(n1c[n+](cc1)C)C.FC(F)(S([N-]S(C(F)(F)F)(=O)=O)(=O)=O)F,29,1,384,29
323.0,0.1,0.129,Training,1-ethyl-3-methylimidazolium bis(trifluoromethylsulfonyl)imide,CCN1C=C[N+](=C1)C.C(F)(F)(F)S(=O)(=O)[N-]S(=O)(=O)C(F)(F)F,[N-](S(=O)(C(F)(F)F)=O)S(C(F)(F)F)(=O)=O.[n+]1(cn(cc1)CC)C,29,1,384,29
323.0,0.1,0.129,Training,1-ethyl-3-methylimidazolium bis(trifluoromethylsulfonyl)imide,CCN1C=C[N+](=C1)C.C(F)(F)(F)S(=O)(=O)[N-]S(=O)(=O)C(F)(F)F,C(C)n1cc[n+](C)c1.C(F)(S([N-]S(=O)(=O)C(F)(F)F)(=O)=O)(F)F,29,1,384,29
323.0,0.1,0.129,Training,1-ethyl-3-methylimidazolium bis(trifluoromethylsulfonyl)imide,CCN1C=C[N+](=C1)C.C(F)(F)(F)S(=O)(=O)[N-]S(=O)(=O)C(F)(F)F,C[n+]1cn(CC)cc1.FC(F)(F)S(=O)(=O)[N-]S(C(F)(F)F)(=O)=O,29,1,384,29
323.0,0.1,0.129,Training,1-ethyl-3-methylimidazolium bis(trifluoromethylsulfonyl)imide,CCN1C=C[N+](=C1)C.C(F)(F)(F)S(=O)(=O)[N-]S(=O)(=O)C(F)(F)F,CCn1cc[n+](C)c1.FC(F)(F)S(=O)(=O)[N-]S(=O)(=O)C(F)(F)F,29,1,384,29
333.0,0.1,0.129,Training,1-ethyl-3-methylimidazolium bis(trifluoromethylsulfonyl)imide,CCN1C=C[N+](=C1)C.C(F)(F)(F)S(=O)(=O)[N-]S(=O)(=O)C(F)(F)F,CCn1cc[n+](C)c1.O=S(=O)([N-]S(=O)(=O)C(F)(F)F)C(F)(F)F,29,1,385,29
333.0,0.1,0.129,Training,1-ethyl-3-methylimidazolium bis(trifluoromethylsulfonyl)imide,CCN1C=C[N+](=C1)C.C(F)(F)(F)S(=O)(=O)[N-]S(=O)(=O)C(F)(F)F,FC(F)(S([N-]S(=O)(C(F)(F)F)=O)(=O)=O)F.[n+]1(C)cn(CC)cc1,29,1,385,29
333.0,0.1,0.129,Training,1-ethyl-3-methylimidazolium bis(trifluoromethylsulfonyl)imide,CCN1C=C[N+](=C1)C.C(F)(F)(F)S(=O)(=O)[N-]S(=O)(=O)C(F)(F)F,C(C)n1c[n+](C)cc1.C(F)(F)(F)S([N-]S(C(F)(F)F)(=O)=O)(=O)=O,29,1,385,29
333.0,0.1,0.129,Training,1-ethyl-3-methylimidazolium bis(trifluoromethylsulfonyl)imide,CCN1C=C[N+](=C1)C.C(F)(F)(F)S(=O)(=O)[N-]S(=O)(=O)C(F)(F)F,FC(F)(S(=O)(=O)[N-]S(=O)(C(F)(F)F)=O)F.c1[n+](cn(c1)CC)C,29,1,385,29
333.0,0.1,0.129,Training,1-ethyl-3-methylimidazolium bis(trifluoromethylsulfonyl)imide,CCN1C=C[N+](=C1)C.C(F)(F)(F)S(=O)(=O)[N-]S(=O)(=O)C(F)(F)F,FC(F)(F)S(=O)([N-]S(=O)(C(F)(F)F)=O)=O.c1[n+](C)ccn1CC,29,1,385,29
333.0,0.1,0.129,Training,1-ethyl-3-methylimidazolium bis(trifluoromethylsulfonyl)imide,CCN1C=C[N+](=C1)C.C(F)(F)(F)S(=O)(=O)[N-]S(=O)(=O)C(F)(F)F,O=S(C(F)(F)F)([N-]S(=O)(=O)C(F)(F)F)=O.n1(CC)c[n+](cc1)C,29,1,385,29
333.0,0.1,0.129,Training,1-ethyl-3-methylimidazolium bis(trifluoromethylsulfonyl)imide,CCN1C=C[N+](=C1)C.C(F)(F)(F)S(=O)(=O)[N-]S(=O)(=O)C(F)(F)F,FC(F)(S([N-]S(=O)(C(F)(F)F)=O)(=O)=O)F.c1[n+](cn(CC)c1)C,29,1,385,29
333.0,0.1,0.129,Training,1-ethyl-3-methylimidazolium bis(trifluoromethylsulfonyl)imide,CCN1C=C[N+](=C1)C.C(F)(F)(F)S(=O)(=O)[N-]S(=O)(=O)C(F)(F)F,C(n1c[n+](cc1)C)C.O=S([N-]S(=O)(C(F)(F)F)=O)(C(F)(F)F)=O,29,1,385,29
333.0,0.1,0.129,Training,1-ethyl-3-methylimidazolium bis(trifluoromethylsulfonyl)imide,CCN1C=C[N+](=C1)C.C(F)(F)(F)S(=O)(=O)[N-]S(=O)(=O)C(F)(F)F,[N-](S(C(F)(F)F)(=O)=O)S(C(F)(F)F)(=O)=O.n1(cc[n+](C)c1)CC,29,1,385,29
333.0,0.1,0.129,Training,1-ethyl-3-methylimidazolium bis(trifluoromethylsulfonyl)imide,CCN1C=C[N+](=C1)C.C(F)(F)(F)S(=O)(=O)[N-]S(=O)(=O)C(F)(F)F,FC(S(=O)([N-]S(C(F)(F)F)(=O)=O)=O)(F)F.c1n(c[n+](c1)C)CC,29,1,385,29
343.0,0.1,0.129,Training,1-ethyl-3-methylimidazolium bis(trifluoromethylsulfonyl)imide,CCN1C=C[N+](=C1)C.C(F)(F)(F)S(=O)(=O)[N-]S(=O)(=O)C(F)(F)F,CCn1cc[n+](C)c1.O=S(=O)([N-]S(=O)(=O)C(F)(F)F)C(F)(F)F,29,1,386,29
343.0,0.1,0.129,Training,1-ethyl-3-methylimidazolium bis(trifluoromethylsulfonyl)imide,CCN1C=C[N+](=C1)C.C(F)(F)(F)S(=O)(=O)[N-]S(=O)(=O)C(F)(F)F,O=S(=O)([N-]S(C(F)(F)F)(=O)=O)C(F)(F)F.c1n(cc[n+]1C)CC,29,1,386,29
343.0,0.1,0.129,Training,1-ethyl-3-methylimidazolium bis(trifluoromethylsulfonyl)imide,CCN1C=C[N+](=C1)C.C(F)(F)(F)S(=O)(=O)[N-]S(=O)(=O)C(F)(F)F,CCn1c[n+](C)cc1.O=S([N-]S(=O)(C(F)(F)F)=O)(=O)C(F)(F)F,29,1,386,29
343.0,0.1,0.129,Training,1-ethyl-3-methylimidazolium bis(trifluoromethylsulfonyl)imide,CCN1C=C[N+](=C1)C.C(F)(F)(F)S(=O)(=O)[N-]S(=O)(=O)C(F)(F)F,C(C)n1cc[n+](C)c1.O=S([N-]S(=O)(C(F)(F)F)=O)(=O)C(F)(F)F,29,1,386,29
343.0,0.1,0.129,Training,1-ethyl-3-methylimidazolium bis(trifluoromethylsulfonyl)imide,CCN1C=C[N+](=C1)C.C(F)(F)(F)S(=O)(=O)[N-]S(=O)(=O)C(F)(F)F,O=S(C(F)(F)F)(=O)[N-]S(=O)(=O)C(F)(F)F.c1cn(c[n+]1C)CC,29,1,386,29
343.0,0.1,0.129,Training,1-ethyl-3-methylimidazolium bis(trifluoromethylsulfonyl)imide,CCN1C=C[N+](=C1)C.C(F)(F)(F)S(=O)(=O)[N-]S(=O)(=O)C(F)(F)F,C(F)(S(=O)(=O)[N-]S(=O)(=O)C(F)(F)F)(F)F.c1[n+](C)cn(CC)c1,29,1,386,29
343.0,0.1,0.129,Training,1-ethyl-3-methylimidazolium bis(trifluoromethylsulfonyl)imide,CCN1C=C[N+](=C1)C.C(F)(F)(F)S(=O)(=O)[N-]S(=O)(=O)C(F)(F)F,O=S(C(F)(F)F)([N-]S(C(F)(F)F)(=O)=O)=O.[n+]1(C)cn(CC)cc1,29,1,386,29
343.0,0.1,0.129,Training,1-ethyl-3-methylimidazolium bis(trifluoromethylsulfonyl)imide,CCN1C=C[N+](=C1)C.C(F)(F)(F)S(=O)(=O)[N-]S(=O)(=O)C(F)(F)F,O=S(=O)([N-]S(=O)(=O)C(F)(F)F)C(F)(F)F.c1n(CC)cc[n+]1C,29,1,386,29
343.0,0.1,0.129,Training,1-ethyl-3-methylimidazolium bis(trifluoromethylsulfonyl)imide,CCN1C=C[N+](=C1)C.C(F)(F)(F)S(=O)(=O)[N-]S(=O)(=O)C(F)(F)F,C(S([N-]S(=O)(C(F)(F)F)=O)(=O)=O)(F)(F)F.c1[n+](ccn1CC)C,29,1,386,29
343.0,0.1,0.129,Training,1-ethyl-3-methylimidazolium bis(trifluoromethylsulfonyl)imide,CCN1C=C[N+](=C1)C.C(F)(F)(F)S(=O)(=O)[N-]S(=O)(=O)C(F)(F)F,C(F)(F)(S(=O)(=O)[N-]S(=O)(C(F)(F)F)=O)F.n1(c[n+](C)cc1)CC,29,1,386,29
353.0,0.1,0.128,Training,1-ethyl-3-methylimidazolium bis(trifluoromethylsulfonyl)imide,CCN1C=C[N+](=C1)C.C(F)(F)(F)S(=O)(=O)[N-]S(=O)(=O)C(F)(F)F,CCn1cc[n+](C)c1.O=S(=O)([N-]S(=O)(=O)C(F)(F)F)C(F)(F)F,29,1,387,29
353.0,0.1,0.128,Training,1-ethyl-3-methylimidazolium bis(trifluoromethylsulfonyl)imide,CCN1C=C[N+](=C1)C.C(F)(F)(F)S(=O)(=O)[N-]S(=O)(=O)C(F)(F)F,[N-](S(=O)(C(F)(F)F)=O)S(=O)(=O)C(F)(F)F.c1n(c[n+](c1)C)CC,29,1,387,29
353.0,0.1,0.128,Training,1-ethyl-3-methylimidazolium bis(trifluoromethylsulfonyl)imide,CCN1C=C[N+](=C1)C.C(F)(F)(F)S(=O)(=O)[N-]S(=O)(=O)C(F)(F)F,S(C(F)(F)F)(=O)([N-]S(=O)(=O)C(F)(F)F)=O.c1n(cc[n+]1C)CC,29,1,387,29
353.0,0.1,0.128,Training,1-ethyl-3-methylimidazolium bis(trifluoromethylsulfonyl)imide,CCN1C=C[N+](=C1)C.C(F)(F)(F)S(=O)(=O)[N-]S(=O)(=O)C(F)(F)F,C(C)n1c[n+](C)cc1.FC(S(=O)(=O)[N-]S(C(F)(F)F)(=O)=O)(F)F,29,1,387,29
353.0,0.1,0.128,Training,1-ethyl-3-methylimidazolium bis(trifluoromethylsulfonyl)imide,CCN1C=C[N+](=C1)C.C(F)(F)(F)S(=O)(=O)[N-]S(=O)(=O)C(F)(F)F,CCn1c[n+](cc1)C.S(=O)([N-]S(=O)(=O)C(F)(F)F)(C(F)(F)F)=O,29,1,387,29
353.0,0.1,0.128,Training,1-ethyl-3-methylimidazolium bis(trifluoromethylsulfonyl)imide,CCN1C=C[N+](=C1)C.C(F)(F)(F)S(=O)(=O)[N-]S(=O)(=O)C(F)(F)F,O=S(C(F)(F)F)([N-]S(=O)(C(F)(F)F)=O)=O.n1(CC)cc[n+](c1)C,29,1,387,29
353.0,0.1,0.128,Training,1-ethyl-3-methylimidazolium bis(trifluoromethylsulfonyl)imide,CCN1C=C[N+](=C1)C.C(F)(F)(F)S(=O)(=O)[N-]S(=O)(=O)C(F)(F)F,C(C)n1cc[n+](c1)C.[N-](S(=O)(C(F)(F)F)=O)S(C(F)(F)F)(=O)=O,29,1,387,29
353.0,0.1,0.128,Training,1-ethyl-3-methylimidazolium bis(trifluoromethylsulfonyl)imide,CCN1C=C[N+](=C1)C.C(F)(F)(F)S(=O)(=O)[N-]S(=O)(=O)C(F)(F)F,C(F)(F)(F)S(=O)(=O)[N-]S(C(F)(F)F)(=O)=O.c1n(cc[n+]1C)CC,29,1,387,29
353.0,0.1,0.128,Training,1-ethyl-3-methylimidazolium bis(trifluoromethylsulfonyl)imide,CCN1C=C[N+](=C1)C.C(F)(F)(F)S(=O)(=O)[N-]S(=O)(=O)C(F)(F)F,C(n1c[n+](cc1)C)C.FC(S([N-]S(=O)(=O)C(F)(F)F)(=O)=O)(F)F,29,1,387,29
353.0,0.1,0.128,Training,1-ethyl-3-methylimidazolium bis(trifluoromethylsulfonyl)imide,CCN1C=C[N+](=C1)C.C(F)(F)(F)S(=O)(=O)[N-]S(=O)(=O)C(F)(F)F,C(n1c[n+](C)cc1)C.S(=O)(=O)(C(F)(F)F)[N-]S(=O)(=O)C(F)(F)F,29,1,387,29
293.0,0.1,0.127,Training,1-hexyl-3-methylimidazolium bis(trifluoromethylsulfonyl)imide,CCCCCCN1C=C[N+](=C1)C.C(F)(F)(F)S(=O)(=O)[N-]S(=O)(=O)C(F)(F)F,CCCCCCn1cc[n+](C)c1.O=S(=O)([N-]S(=O)(=O)C(F)(F)F)C(F)(F)F,13,1,388,13
293.0,0.1,0.127,Training,1-hexyl-3-methylimidazolium bis(trifluoromethylsulfonyl)imide,CCCCCCN1C=C[N+](=C1)C.C(F)(F)(F)S(=O)(=O)[N-]S(=O)(=O)C(F)(F)F,FC(F)(S(=O)(=O)[N-]S(C(F)(F)F)(=O)=O)F.c1c[n+](cn1CCCCCC)C,13,1,388,13
293.0,0.1,0.127,Training,1-hexyl-3-methylimidazolium bis(trifluoromethylsulfonyl)imide,CCCCCCN1C=C[N+](=C1)C.C(F)(F)(F)S(=O)(=O)[N-]S(=O)(=O)C(F)(F)F,O=S(C(F)(F)F)(=O)[N-]S(=O)(=O)C(F)(F)F.n1(CCCCCC)c[n+](cc1)C,13,1,388,13
293.0,0.1,0.127,Training,1-hexyl-3-methylimidazolium bis(trifluoromethylsulfonyl)imide,CCCCCCN1C=C[N+](=C1)C.C(F)(F)(F)S(=O)(=O)[N-]S(=O)(=O)C(F)(F)F,C(CC)CCCn1c[n+](cc1)C.FC(F)(F)S(=O)(=O)[N-]S(=O)(=O)C(F)(F)F,13,1,388,13
293.0,0.1,0.127,Training,1-hexyl-3-methylimidazolium bis(trifluoromethylsulfonyl)imide,CCCCCCN1C=C[N+](=C1)C.C(F)(F)(F)S(=O)(=O)[N-]S(=O)(=O)C(F)(F)F,C(CCCCn1c[n+](C)cc1)C.O=S(=O)(C(F)(F)F)[N-]S(=O)(=O)C(F)(F)F,13,1,388,13
293.0,0.1,0.127,Training,1-hexyl-3-methylimidazolium bis(trifluoromethylsulfonyl)imide,CCCCCCN1C=C[N+](=C1)C.C(F)(F)(F)S(=O)(=O)[N-]S(=O)(=O)C(F)(F)F,C(CCC)CCn1cc[n+](C)c1.S([N-]S(=O)(C(F)(F)F)=O)(=O)(C(F)(F)F)=O,13,1,388,13
293.0,0.1,0.127,Training,1-hexyl-3-methylimidazolium bis(trifluoromethylsulfonyl)imide,CCCCCCN1C=C[N+](=C1)C.C(F)(F)(F)S(=O)(=O)[N-]S(=O)(=O)C(F)(F)F,C(CCC)CCn1c[n+](cc1)C.S(=O)(=O)(C(F)(F)F)[N-]S(=O)(C(F)(F)F)=O,13,1,388,13
293.0,0.1,0.127,Training,1-hexyl-3-methylimidazolium bis(trifluoromethylsulfonyl)imide,CCCCCCN1C=C[N+](=C1)C.C(F)(F)(F)S(=O)(=O)[N-]S(=O)(=O)C(F)(F)F,C(Cn1c[n+](cc1)C)CCCC.C(F)(S([N-]S(C(F)(F)F)(=O)=O)(=O)=O)(F)F,13,1,388,13
293.0,0.1,0.127,Training,1-hexyl-3-methylimidazolium bis(trifluoromethylsulfonyl)imide,CCCCCCN1C=C[N+](=C1)C.C(F)(F)(F)S(=O)(=O)[N-]S(=O)(=O)C(F)(F)F,O=S(=O)([N-]S(C(F)(F)F)(=O)=O)C(F)(F)F.c1n(c[n+](C)c1)CCCCCC,13,1,388,13
293.0,0.1,0.127,Training,1-hexyl-3-methylimidazolium bis(trifluoromethylsulfonyl)imide,CCCCCCN1C=C[N+](=C1)C.C(F)(F)(F)S(=O)(=O)[N-]S(=O)(=O)C(F)(F)F,C(CCCC)Cn1c[n+](cc1)C.FC(F)(F)S(=O)(=O)[N-]S(C(F)(F)F)(=O)=O,13,1,388,13
303.0,0.1,0.127,Training,1-hexyl-3-methylimidazolium bis(trifluoromethylsulfonyl)imide,CCCCCCN1C=C[N+](=C1)C.C(F)(F)(F)S(=O)(=O)[N-]S(=O)(=O)C(F)(F)F,CCCCCCn1cc[n+](C)c1.O=S(=O)([N-]S(=O)(=O)C(F)(F)F)C(F)(F)F,13,1,389,13
303.0,0.1,0.127,Training,1-hexyl-3-methylimidazolium bis(trifluoromethylsulfonyl)imide,CCCCCCN1C=C[N+](=C1)C.C(F)(F)(F)S(=O)(=O)[N-]S(=O)(=O)C(F)(F)F,C(CCCC)Cn1cc[n+](c1)C.S(=O)(=O)([N-]S(=O)(C(F)(F)F)=O)C(F)(F)F,13,1,389,13
303.0,0.1,0.127,Training,1-hexyl-3-methylimidazolium bis(trifluoromethylsulfonyl)imide,CCCCCCN1C=C[N+](=C1)C.C(F)(F)(F)S(=O)(=O)[N-]S(=O)(=O)C(F)(F)F,O=S([N-]S(=O)(C(F)(F)F)=O)(=O)C(F)(F)F.c1n(CCCCCC)c[n+](c1)C,13,1,389,13
303.0,0.1,0.127,Training,1-hexyl-3-methylimidazolium bis(trifluoromethylsulfonyl)imide,CCCCCCN1C=C[N+](=C1)C.C(F)(F)(F)S(=O)(=O)[N-]S(=O)(=O)C(F)(F)F,FC(F)(F)S(=O)([N-]S(=O)(C(F)(F)F)=O)=O.n1(CCCCCC)cc[n+](c1)C,13,1,389,13
303.0,0.1,0.127,Training,1-hexyl-3-methylimidazolium bis(trifluoromethylsulfonyl)imide,CCCCCCN1C=C[N+](=C1)C.C(F)(F)(F)S(=O)(=O)[N-]S(=O)(=O)C(F)(F)F,O=S([N-]S(=O)(=O)C(F)(F)F)(C(F)(F)F)=O.[n+]1(ccn(c1)CCCCCC)C,13,1,389,13
303.0,0.1,0.127,Training,1-hexyl-3-methylimidazolium bis(trifluoromethylsulfonyl)imide,CCCCCCN1C=C[N+](=C1)C.C(F)(F)(F)S(=O)(=O)[N-]S(=O)(=O)C(F)(F)F,[N-](S(=O)(=O)C(F)(F)F)S(C(F)(F)F)(=O)=O.c1c[n+](C)cn1CCCCCC,13,1,389,13
303.0,0.1,0.127,Training,1-hexyl-3-methylimidazolium bis(trifluoromethylsulfonyl)imide,CCCCCCN1C=C[N+](=C1)C.C(F)(F)(F)S(=O)(=O)[N-]S(=O)(=O)C(F)(F)F,C(S(=O)([N-]S(C(F)(F)F)(=O)=O)=O)(F)(F)F.c1n(CCCCCC)cc[n+]1C,13,1,389,13
303.0,0.1,0.127,Training,1-hexyl-3-methylimidazolium bis(trifluoromethylsulfonyl)imide,CCCCCCN1C=C[N+](=C1)C.C(F)(F)(F)S(=O)(=O)[N-]S(=O)(=O)C(F)(F)F,C[n+]1ccn(CCCCCC)c1.FC(F)(S(=O)(=O)[N-]S(=O)(C(F)(F)F)=O)F,13,1,389,13
303.0,0.1,0.127,Training,1-hexyl-3-methylimidazolium bis(trifluoromethylsulfonyl)imide,CCCCCCN1C=C[N+](=C1)C.C(F)(F)(F)S(=O)(=O)[N-]S(=O)(=O)C(F)(F)F,O=S(C(F)(F)F)([N-]S(=O)(=O)C(F)(F)F)=O.[n+]1(cn(cc1)CCCCCC)C,13,1,389,13