T/K,P/MPa,TC/W m-1 K-1,Data type,Name,SMILES,Normalized SMILES,index,P/bar,RANDOM,IL
283.15,10.0,0.1825,Training,1-butyl-3-methylimidazolium methylsulfate,CCCCN1C=C[N+](=C1)C.COS(=O)(=O)[O-],O(S([O-])(=O)=O)C.n1(CCCC)c[n+](C)cc1,5,100,83,5
283.15,10.0,0.1825,Training,1-butyl-3-methylimidazolium methylsulfate,CCCCN1C=C[N+](=C1)C.COS(=O)(=O)[O-],S(=O)(OC)([O-])=O.c1[n+](C)ccn1CCCC,5,100,83,5
283.15,10.0,0.1825,Training,1-butyl-3-methylimidazolium methylsulfate,CCCCN1C=C[N+](=C1)C.COS(=O)(=O)[O-],CCCCn1cc[n+](C)c1.S(=O)(OC)(=O)[O-],5,100,83,5
283.15,10.0,0.1825,Training,1-butyl-3-methylimidazolium methylsulfate,CCCCN1C=C[N+](=C1)C.COS(=O)(=O)[O-],COS(=O)([O-])=O.c1c[n+](C)cn1CCCC,5,100,83,5
283.15,10.0,0.1825,Training,1-butyl-3-methylimidazolium methylsulfate,CCCCN1C=C[N+](=C1)C.COS(=O)(=O)[O-],O=S([O-])(=O)OC.c1[n+](cn(CCCC)c1)C,5,100,83,5
283.15,10.0,0.1825,Training,1-butyl-3-methylimidazolium methylsulfate,CCCCN1C=C[N+](=C1)C.COS(=O)(=O)[O-],O=S(OC)(=O)[O-].n1(CCCC)cc[n+](C)c1,5,100,83,5
283.15,10.0,0.1825,Training,1-butyl-3-methylimidazolium methylsulfate,CCCCN1C=C[N+](=C1)C.COS(=O)(=O)[O-],CCCCn1cc[n+](c1)C.O=S(OC)(=O)[O-],5,100,83,5
283.15,10.0,0.1825,Training,1-butyl-3-methylimidazolium methylsulfate,CCCCN1C=C[N+](=C1)C.COS(=O)(=O)[O-],COS(=O)([O-])=O.c1[n+](C)cn(c1)CCCC,5,100,83,5
283.15,20.0,0.1835,Training,1-butyl-3-methylimidazolium methylsulfate,CCCCN1C=C[N+](=C1)C.COS(=O)(=O)[O-],CCCCn1cc[n+](C)c1.COS(=O)(=O)[O-],5,200,84,5
283.15,20.0,0.1835,Training,1-butyl-3-methylimidazolium methylsulfate,CCCCN1C=C[N+](=C1)C.COS(=O)(=O)[O-],C[n+]1ccn(CCCC)c1.O=S([O-])(=O)OC,5,200,84,5
283.15,20.0,0.1835,Training,1-butyl-3-methylimidazolium methylsulfate,CCCCN1C=C[N+](=C1)C.COS(=O)(=O)[O-],O=S(=O)([O-])OC.[n+]1(cn(CCCC)cc1)C,5,200,84,5
283.15,20.0,0.1835,Training,1-butyl-3-methylimidazolium methylsulfate,CCCCN1C=C[N+](=C1)C.COS(=O)(=O)[O-],O(C)S(=O)(=O)[O-].c1cn(CCCC)c[n+]1C,5,200,84,5
283.15,20.0,0.1835,Training,1-butyl-3-methylimidazolium methylsulfate,CCCCN1C=C[N+](=C1)C.COS(=O)(=O)[O-],[O-]S(=O)(OC)=O.n1(cc[n+](C)c1)CCCC,5,200,84,5
283.15,20.0,0.1835,Training,1-butyl-3-methylimidazolium methylsulfate,CCCCN1C=C[N+](=C1)C.COS(=O)(=O)[O-],CCCCn1c[n+](cc1)C.COS(=O)([O-])=O,5,200,84,5
283.15,20.0,0.1835,Training,1-butyl-3-methylimidazolium methylsulfate,CCCCN1C=C[N+](=C1)C.COS(=O)(=O)[O-],O=S([O-])(OC)=O.c1n(c[n+](c1)C)CCCC,5,200,84,5
283.15,20.0,0.1835,Training,1-butyl-3-methylimidazolium methylsulfate,CCCCN1C=C[N+](=C1)C.COS(=O)(=O)[O-],C(CCC)n1cc[n+](C)c1.S(=O)([O-])(=O)OC,5,200,84,5
283.15,20.0,0.1835,Training,1-butyl-3-methylimidazolium methylsulfate,CCCCN1C=C[N+](=C1)C.COS(=O)(=O)[O-],C(CCn1cc[n+](C)c1)C.O=S(OC)([O-])=O,5,200,84,5
283.15,20.0,0.1835,Training,1-butyl-3-methylimidazolium methylsulfate,CCCCN1C=C[N+](=C1)C.COS(=O)(=O)[O-],C(Cn1c[n+](C)cc1)CC.O=S(=O)(OC)[O-],5,200,84,5
283.15,30.0,0.1836,Testing,1-butyl-3-methylimidazolium methylsulfate,CCCCN1C=C[N+](=C1)C.COS(=O)(=O)[O-],CCCCn1cc[n+](C)c1.COS(=O)(=O)[O-],5,300,85,5
283.15,30.0,0.1836,Testing,1-butyl-3-methylimidazolium methylsulfate,CCCCN1C=C[N+](=C1)C.COS(=O)(=O)[O-],O=S(=O)(OC)[O-].c1cn(CCCC)c[n+]1C,5,300,85,5
283.15,30.0,0.1836,Testing,1-butyl-3-methylimidazolium methylsulfate,CCCCN1C=C[N+](=C1)C.COS(=O)(=O)[O-],O(S([O-])(=O)=O)C.c1n(CCCC)c[n+](c1)C,5,300,85,5
283.15,30.0,0.1836,Testing,1-butyl-3-methylimidazolium methylsulfate,CCCCN1C=C[N+](=C1)C.COS(=O)(=O)[O-],C[n+]1ccn(CCCC)c1.O=S([O-])(OC)=O,5,300,85,5
283.15,30.0,0.1836,Testing,1-butyl-3-methylimidazolium methylsulfate,CCCCN1C=C[N+](=C1)C.COS(=O)(=O)[O-],CCCCn1c[n+](C)cc1.[O-]S(=O)(=O)OC,5,300,85,5
283.15,30.0,0.1836,Testing,1-butyl-3-methylimidazolium methylsulfate,CCCCN1C=C[N+](=C1)C.COS(=O)(=O)[O-],C[n+]1cn(cc1)CCCC.S(=O)(=O)(OC)[O-],5,300,85,5
283.15,30.0,0.1836,Testing,1-butyl-3-methylimidazolium methylsulfate,CCCCN1C=C[N+](=C1)C.COS(=O)(=O)[O-],C(CC)Cn1c[n+](cc1)C.S([O-])(=O)(OC)=O,5,300,85,5
283.15,30.0,0.1836,Testing,1-butyl-3-methylimidazolium methylsulfate,CCCCN1C=C[N+](=C1)C.COS(=O)(=O)[O-],CCCCn1c[n+](C)cc1.O(S(=O)(=O)[O-])C,5,300,85,5
283.15,30.0,0.1836,Testing,1-butyl-3-methylimidazolium methylsulfate,CCCCN1C=C[N+](=C1)C.COS(=O)(=O)[O-],O(C)S(=O)(=O)[O-].c1[n+](ccn1CCCC)C,5,300,85,5
283.15,30.0,0.1836,Testing,1-butyl-3-methylimidazolium methylsulfate,CCCCN1C=C[N+](=C1)C.COS(=O)(=O)[O-],[O-]S(OC)(=O)=O.n1(cc[n+](C)c1)CCCC,5,300,85,5
283.15,40.0,0.1866,Training,1-butyl-3-methylimidazolium methylsulfate,CCCCN1C=C[N+](=C1)C.COS(=O)(=O)[O-],CCCCn1cc[n+](C)c1.COS(=O)(=O)[O-],5,400,86,5
283.15,40.0,0.1866,Training,1-butyl-3-methylimidazolium methylsulfate,CCCCN1C=C[N+](=C1)C.COS(=O)(=O)[O-],CCCCn1cc[n+](C)c1.S([O-])(OC)(=O)=O,5,400,86,5
283.15,40.0,0.1866,Training,1-butyl-3-methylimidazolium methylsulfate,CCCCN1C=C[N+](=C1)C.COS(=O)(=O)[O-],O(C)S([O-])(=O)=O.c1cn(c[n+]1C)CCCC,5,400,86,5
283.15,40.0,0.1866,Training,1-butyl-3-methylimidazolium methylsulfate,CCCCN1C=C[N+](=C1)C.COS(=O)(=O)[O-],O(C)S(=O)(=O)[O-].c1c[n+](cn1CCCC)C,5,400,86,5
283.15,40.0,0.1866,Training,1-butyl-3-methylimidazolium methylsulfate,CCCCN1C=C[N+](=C1)C.COS(=O)(=O)[O-],O=S([O-])(=O)OC.c1[n+](C)cn(CCCC)c1,5,400,86,5
283.15,40.0,0.1866,Training,1-butyl-3-methylimidazolium methylsulfate,CCCCN1C=C[N+](=C1)C.COS(=O)(=O)[O-],C(CCn1c[n+](C)cc1)C.O(C)S(=O)([O-])=O,5,400,86,5
283.15,40.0,0.1866,Training,1-butyl-3-methylimidazolium methylsulfate,CCCCN1C=C[N+](=C1)C.COS(=O)(=O)[O-],CCCCn1c[n+](C)cc1.S(=O)(=O)(OC)[O-],5,400,86,5
283.15,40.0,0.1866,Training,1-butyl-3-methylimidazolium methylsulfate,CCCCN1C=C[N+](=C1)C.COS(=O)(=O)[O-],COS([O-])(=O)=O.[n+]1(C)cn(CCCC)cc1,5,400,86,5
283.15,40.0,0.1866,Training,1-butyl-3-methylimidazolium methylsulfate,CCCCN1C=C[N+](=C1)C.COS(=O)(=O)[O-],[O-]S(=O)(=O)OC.c1c[n+](cn1CCCC)C,5,400,86,5
283.15,40.0,0.1866,Training,1-butyl-3-methylimidazolium methylsulfate,CCCCN1C=C[N+](=C1)C.COS(=O)(=O)[O-],COS(=O)([O-])=O.c1c[n+](C)cn1CCCC,5,400,86,5
283.15,50.0,0.1902,Testing,1-butyl-3-methylimidazolium methylsulfate,CCCCN1C=C[N+](=C1)C.COS(=O)(=O)[O-],CCCCn1cc[n+](C)c1.COS(=O)(=O)[O-],5,500,87,5
283.15,50.0,0.1902,Testing,1-butyl-3-methylimidazolium methylsulfate,CCCCN1C=C[N+](=C1)C.COS(=O)(=O)[O-],C(C)CCn1c[n+](cc1)C.S(=O)([O-])(=O)OC,5,500,87,5
283.15,50.0,0.1902,Testing,1-butyl-3-methylimidazolium methylsulfate,CCCCN1C=C[N+](=C1)C.COS(=O)(=O)[O-],S(=O)(=O)([O-])OC.c1n(CCCC)c[n+](C)c1,5,500,87,5
283.15,50.0,0.1902,Testing,1-butyl-3-methylimidazolium methylsulfate,CCCCN1C=C[N+](=C1)C.COS(=O)(=O)[O-],C(CCC)n1c[n+](cc1)C.O=S(=O)(OC)[O-],5,500,87,5
283.15,50.0,0.1902,Testing,1-butyl-3-methylimidazolium methylsulfate,CCCCN1C=C[N+](=C1)C.COS(=O)(=O)[O-],C(Cn1cc[n+](C)c1)CC.COS(=O)([O-])=O,5,500,87,5
283.15,50.0,0.1902,Testing,1-butyl-3-methylimidazolium methylsulfate,CCCCN1C=C[N+](=C1)C.COS(=O)(=O)[O-],O=S([O-])(OC)=O.c1c[n+](cn1CCCC)C,5,500,87,5
283.15,50.0,0.1902,Testing,1-butyl-3-methylimidazolium methylsulfate,CCCCN1C=C[N+](=C1)C.COS(=O)(=O)[O-],C(n1c[n+](C)cc1)CCC.COS([O-])(=O)=O,5,500,87,5
283.15,50.0,0.1902,Testing,1-butyl-3-methylimidazolium methylsulfate,CCCCN1C=C[N+](=C1)C.COS(=O)(=O)[O-],O=S(OC)(=O)[O-].c1n(CCCC)cc[n+]1C,5,500,87,5
283.15,50.0,0.1902,Testing,1-butyl-3-methylimidazolium methylsulfate,CCCCN1C=C[N+](=C1)C.COS(=O)(=O)[O-],S(=O)(=O)([O-])OC.c1n(cc[n+]1C)CCCC,5,500,87,5
283.15,50.0,0.1902,Testing,1-butyl-3-methylimidazolium methylsulfate,CCCCN1C=C[N+](=C1)C.COS(=O)(=O)[O-],C(Cn1cc[n+](C)c1)CC.S([O-])(OC)(=O)=O,5,500,87,5
283.15,60.0,0.1893,Training,1-butyl-3-methylimidazolium methylsulfate,CCCCN1C=C[N+](=C1)C.COS(=O)(=O)[O-],CCCCn1cc[n+](C)c1.COS(=O)(=O)[O-],5,600,88,5
283.15,60.0,0.1893,Training,1-butyl-3-methylimidazolium methylsulfate,CCCCN1C=C[N+](=C1)C.COS(=O)(=O)[O-],S(OC)(=O)([O-])=O.[n+]1(C)ccn(CCCC)c1,5,600,88,5
283.15,60.0,0.1893,Training,1-butyl-3-methylimidazolium methylsulfate,CCCCN1C=C[N+](=C1)C.COS(=O)(=O)[O-],[O-]S(=O)(OC)=O.c1cn(c[n+]1C)CCCC,5,600,88,5
283.15,60.0,0.1893,Training,1-butyl-3-methylimidazolium methylsulfate,CCCCN1C=C[N+](=C1)C.COS(=O)(=O)[O-],C(Cn1cc[n+](C)c1)CC.COS(=O)(=O)[O-],5,600,88,5
283.15,60.0,0.1893,Training,1-butyl-3-methylimidazolium methylsulfate,CCCCN1C=C[N+](=C1)C.COS(=O)(=O)[O-],C(C)CCn1c[n+](cc1)C.S([O-])(=O)(OC)=O,5,600,88,5
283.15,60.0,0.1893,Training,1-butyl-3-methylimidazolium methylsulfate,CCCCN1C=C[N+](=C1)C.COS(=O)(=O)[O-],[O-]S(=O)(OC)=O.c1[n+](C)cn(c1)CCCC,5,600,88,5
283.15,60.0,0.1893,Training,1-butyl-3-methylimidazolium methylsulfate,CCCCN1C=C[N+](=C1)C.COS(=O)(=O)[O-],C(Cn1cc[n+](C)c1)CC.S(=O)(=O)(OC)[O-],5,600,88,5
283.15,60.0,0.1893,Training,1-butyl-3-methylimidazolium methylsulfate,CCCCN1C=C[N+](=C1)C.COS(=O)(=O)[O-],[O-]S(=O)(=O)OC.n1(CCCC)c[n+](cc1)C,5,600,88,5
283.15,60.0,0.1893,Training,1-butyl-3-methylimidazolium methylsulfate,CCCCN1C=C[N+](=C1)C.COS(=O)(=O)[O-],O=S([O-])(OC)=O.n1(CCCC)cc[n+](c1)C,5,600,88,5
283.15,60.0,0.1893,Training,1-butyl-3-methylimidazolium methylsulfate,CCCCN1C=C[N+](=C1)C.COS(=O)(=O)[O-],COS(=O)([O-])=O.c1[n+](cn(CCCC)c1)C,5,600,88,5
283.15,65.0,0.1907,Training,1-butyl-3-methylimidazolium methylsulfate,CCCCN1C=C[N+](=C1)C.COS(=O)(=O)[O-],CCCCn1cc[n+](C)c1.COS(=O)(=O)[O-],5,650,89,5
283.15,65.0,0.1907,Training,1-butyl-3-methylimidazolium methylsulfate,CCCCN1C=C[N+](=C1)C.COS(=O)(=O)[O-],O(S(=O)(=O)[O-])C.c1n(CCCC)c[n+](c1)C,5,650,89,5
283.15,65.0,0.1907,Training,1-butyl-3-methylimidazolium methylsulfate,CCCCN1C=C[N+](=C1)C.COS(=O)(=O)[O-],O(C)S(=O)([O-])=O.n1(CCCC)cc[n+](C)c1,5,650,89,5
283.15,65.0,0.1907,Training,1-butyl-3-methylimidazolium methylsulfate,CCCCN1C=C[N+](=C1)C.COS(=O)(=O)[O-],O(S(=O)([O-])=O)C.c1n(c[n+](C)c1)CCCC,5,650,89,5
283.15,65.0,0.1907,Training,1-butyl-3-methylimidazolium methylsulfate,CCCCN1C=C[N+](=C1)C.COS(=O)(=O)[O-],O(C)S(=O)(=O)[O-].n1(c[n+](C)cc1)CCCC,5,650,89,5
283.15,65.0,0.1907,Training,1-butyl-3-methylimidazolium methylsulfate,CCCCN1C=C[N+](=C1)C.COS(=O)(=O)[O-],C[n+]1cn(CCCC)cc1.S(=O)([O-])(=O)OC,5,650,89,5
283.15,65.0,0.1907,Training,1-butyl-3-methylimidazolium methylsulfate,CCCCN1C=C[N+](=C1)C.COS(=O)(=O)[O-],C(CC)Cn1c[n+](cc1)C.COS(=O)(=O)[O-],5,650,89,5
283.15,65.0,0.1907,Training,1-butyl-3-methylimidazolium methylsulfate,CCCCN1C=C[N+](=C1)C.COS(=O)(=O)[O-],COS(=O)(=O)[O-].c1n(cc[n+]1C)CCCC,5,650,89,5
283.15,65.0,0.1907,Training,1-butyl-3-methylimidazolium methylsulfate,CCCCN1C=C[N+](=C1)C.COS(=O)(=O)[O-],O=S(=O)([O-])OC.c1c[n+](cn1CCCC)C,5,650,89,5
283.15,65.0,0.1907,Training,1-butyl-3-methylimidazolium methylsulfate,CCCCN1C=C[N+](=C1)C.COS(=O)(=O)[O-],C[n+]1cn(cc1)CCCC.O(S(=O)(=O)[O-])C,5,650,89,5
293.15,0.1,0.1746,Training,1-butyl-3-methylimidazolium methylsulfate,CCCCN1C=C[N+](=C1)C.COS(=O)(=O)[O-],CCCCn1cc[n+](C)c1.COS(=O)(=O)[O-],5,1,90,5
293.15,0.1,0.1746,Training,1-butyl-3-methylimidazolium methylsulfate,CCCCN1C=C[N+](=C1)C.COS(=O)(=O)[O-],C[n+]1cn(CCCC)cc1.S([O-])(=O)(OC)=O,5,1,90,5
293.15,0.1,0.1746,Training,1-butyl-3-methylimidazolium methylsulfate,CCCCN1C=C[N+](=C1)C.COS(=O)(=O)[O-],C(CCn1c[n+](C)cc1)C.O(C)S([O-])(=O)=O,5,1,90,5
293.15,0.1,0.1746,Training,1-butyl-3-methylimidazolium methylsulfate,CCCCN1C=C[N+](=C1)C.COS(=O)(=O)[O-],COS(=O)(=O)[O-].C[n+]1ccn(CCCC)c1,5,1,90,5
293.15,0.1,0.1746,Training,1-butyl-3-methylimidazolium methylsulfate,CCCCN1C=C[N+](=C1)C.COS(=O)(=O)[O-],CCCCn1c[n+](cc1)C.[O-]S(=O)(OC)=O,5,1,90,5
293.15,0.1,0.1746,Training,1-butyl-3-methylimidazolium methylsulfate,CCCCN1C=C[N+](=C1)C.COS(=O)(=O)[O-],CCCCn1c[n+](cc1)C.O=S([O-])(OC)=O,5,1,90,5
293.15,0.1,0.1746,Training,1-butyl-3-methylimidazolium methylsulfate,CCCCN1C=C[N+](=C1)C.COS(=O)(=O)[O-],C(CC)Cn1cc[n+](C)c1.O=S(=O)(OC)[O-],5,1,90,5
293.15,0.1,0.1746,Training,1-butyl-3-methylimidazolium methylsulfate,CCCCN1C=C[N+](=C1)C.COS(=O)(=O)[O-],C(CCC)n1cc[n+](C)c1.COS([O-])(=O)=O,5,1,90,5
293.15,0.1,0.1746,Training,1-butyl-3-methylimidazolium methylsulfate,CCCCN1C=C[N+](=C1)C.COS(=O)(=O)[O-],[O-]S(OC)(=O)=O.c1cn(CCCC)c[n+]1C,5,1,90,5
293.15,0.1,0.1746,Training,1-butyl-3-methylimidazolium methylsulfate,CCCCN1C=C[N+](=C1)C.COS(=O)(=O)[O-],[O-]S(OC)(=O)=O.c1cn(c[n+]1C)CCCC,5,1,90,5
293.15,5.0,0.1762,Training,1-butyl-3-methylimidazolium methylsulfate,CCCCN1C=C[N+](=C1)C.COS(=O)(=O)[O-],CCCCn1cc[n+](C)c1.COS(=O)(=O)[O-],5,50,91,5
293.15,5.0,0.1762,Training,1-butyl-3-methylimidazolium methylsulfate,CCCCN1C=C[N+](=C1)C.COS(=O)(=O)[O-],O=S(=O)(OC)[O-].c1cn(c[n+]1C)CCCC,5,50,91,5
293.15,5.0,0.1762,Training,1-butyl-3-methylimidazolium methylsulfate,CCCCN1C=C[N+](=C1)C.COS(=O)(=O)[O-],COS(=O)([O-])=O.[n+]1(cn(CCCC)cc1)C,5,50,91,5
293.15,5.0,0.1762,Training,1-butyl-3-methylimidazolium methylsulfate,CCCCN1C=C[N+](=C1)C.COS(=O)(=O)[O-],C[n+]1cn(cc1)CCCC.O(C)S(=O)(=O)[O-],5,50,91,5
293.15,5.0,0.1762,Training,1-butyl-3-methylimidazolium methylsulfate,CCCCN1C=C[N+](=C1)C.COS(=O)(=O)[O-],C(CC)Cn1c[n+](cc1)C.COS(=O)([O-])=O,5,50,91,5
293.15,5.0,0.1762,Training,1-butyl-3-methylimidazolium methylsulfate,CCCCN1C=C[N+](=C1)C.COS(=O)(=O)[O-],C(CCC)n1c[n+](cc1)C.O=S(OC)(=O)[O-],5,50,91,5
293.15,5.0,0.1762,Training,1-butyl-3-methylimidazolium methylsulfate,CCCCN1C=C[N+](=C1)C.COS(=O)(=O)[O-],S(=O)([O-])(=O)OC.c1n(cc[n+]1C)CCCC,5,50,91,5
293.15,5.0,0.1762,Training,1-butyl-3-methylimidazolium methylsulfate,CCCCN1C=C[N+](=C1)C.COS(=O)(=O)[O-],O=S(OC)(=O)[O-].c1cn(c[n+]1C)CCCC,5,50,91,5
293.15,5.0,0.1762,Training,1-butyl-3-methylimidazolium methylsulfate,CCCCN1C=C[N+](=C1)C.COS(=O)(=O)[O-],S(=O)(=O)(OC)[O-].n1(CCCC)c[n+](cc1)C,5,50,91,5
293.15,5.0,0.1762,Training,1-butyl-3-methylimidazolium methylsulfate,CCCCN1C=C[N+](=C1)C.COS(=O)(=O)[O-],COS(=O)([O-])=O.c1[n+](cn(c1)CCCC)C,5,50,91,5
293.15,10.0,0.1761,Training,1-butyl-3-methylimidazolium methylsulfate,CCCCN1C=C[N+](=C1)C.COS(=O)(=O)[O-],CCCCn1cc[n+](C)c1.COS(=O)(=O)[O-],5,100,92,5
293.15,10.0,0.1761,Training,1-butyl-3-methylimidazolium methylsulfate,CCCCN1C=C[N+](=C1)C.COS(=O)(=O)[O-],C(CC)Cn1c[n+](C)cc1.[O-]S(OC)(=O)=O,5,100,92,5
293.15,10.0,0.1761,Training,1-butyl-3-methylimidazolium methylsulfate,CCCCN1C=C[N+](=C1)C.COS(=O)(=O)[O-],C[n+]1ccn(CCCC)c1.O=S(=O)(OC)[O-],5,100,92,5
293.15,10.0,0.1761,Training,1-butyl-3-methylimidazolium methylsulfate,CCCCN1C=C[N+](=C1)C.COS(=O)(=O)[O-],C(Cn1cc[n+](c1)C)CC.O=S([O-])(=O)OC,5,100,92,5
293.15,10.0,0.1761,Training,1-butyl-3-methylimidazolium methylsulfate,CCCCN1C=C[N+](=C1)C.COS(=O)(=O)[O-],O(S(=O)(=O)[O-])C.c1n(CCCC)c[n+](C)c1,5,100,92,5
293.15,10.0,0.1761,Training,1-butyl-3-methylimidazolium methylsulfate,CCCCN1C=C[N+](=C1)C.COS(=O)(=O)[O-],S(OC)(=O)(=O)[O-].[n+]1(cn(CCCC)cc1)C,5,100,92,5
293.15,10.0,0.1761,Training,1-butyl-3-methylimidazolium methylsulfate,CCCCN1C=C[N+](=C1)C.COS(=O)(=O)[O-],O=S(=O)([O-])OC.c1[n+](C)cn(c1)CCCC,5,100,92,5
293.15,10.0,0.1761,Training,1-butyl-3-methylimidazolium methylsulfate,CCCCN1C=C[N+](=C1)C.COS(=O)(=O)[O-],O=S([O-])(=O)OC.c1n(c[n+](C)c1)CCCC,5,100,92,5
293.15,10.0,0.1761,Training,1-butyl-3-methylimidazolium methylsulfate,CCCCN1C=C[N+](=C1)C.COS(=O)(=O)[O-],C(C)CCn1cc[n+](c1)C.O=S([O-])(=O)OC,5,100,92,5
293.15,10.0,0.1761,Training,1-butyl-3-methylimidazolium methylsulfate,CCCCN1C=C[N+](=C1)C.COS(=O)(=O)[O-],COS(=O)([O-])=O.C[n+]1ccn(CCCC)c1,5,100,92,5
293.15,20.0,0.18,Training,1-butyl-3-methylimidazolium methylsulfate,CCCCN1C=C[N+](=C1)C.COS(=O)(=O)[O-],CCCCn1cc[n+](C)c1.COS(=O)(=O)[O-],5,200,93,5
293.15,20.0,0.18,Training,1-butyl-3-methylimidazolium methylsulfate,CCCCN1C=C[N+](=C1)C.COS(=O)(=O)[O-],C(CCn1cc[n+](c1)C)C.[O-]S(=O)(=O)OC,5,200,93,5
293.15,20.0,0.18,Training,1-butyl-3-methylimidazolium methylsulfate,CCCCN1C=C[N+](=C1)C.COS(=O)(=O)[O-],C(n1cc[n+](c1)C)CCC.[O-]S(=O)(OC)=O,5,200,93,5
293.15,20.0,0.18,Training,1-butyl-3-methylimidazolium methylsulfate,CCCCN1C=C[N+](=C1)C.COS(=O)(=O)[O-],[O-]S(OC)(=O)=O.[n+]1(ccn(CCCC)c1)C,5,200,93,5
293.15,20.0,0.18,Training,1-butyl-3-methylimidazolium methylsulfate,CCCCN1C=C[N+](=C1)C.COS(=O)(=O)[O-],C(CCC)n1cc[n+](C)c1.O=S([O-])(OC)=O,5,200,93,5
293.15,20.0,0.18,Training,1-butyl-3-methylimidazolium methylsulfate,CCCCN1C=C[N+](=C1)C.COS(=O)(=O)[O-],[O-]S(OC)(=O)=O.c1cn(CCCC)c[n+]1C,5,200,93,5
293.15,20.0,0.18,Training,1-butyl-3-methylimidazolium methylsulfate,CCCCN1C=C[N+](=C1)C.COS(=O)(=O)[O-],[O-]S(=O)(OC)=O.c1n(cc[n+]1C)CCCC,5,200,93,5
293.15,20.0,0.18,Training,1-butyl-3-methylimidazolium methylsulfate,CCCCN1C=C[N+](=C1)C.COS(=O)(=O)[O-],COS(=O)([O-])=O.c1n(CCCC)cc[n+]1C,5,200,93,5
293.15,20.0,0.18,Training,1-butyl-3-methylimidazolium methylsulfate,CCCCN1C=C[N+](=C1)C.COS(=O)(=O)[O-],C(CCC)n1c[n+](cc1)C.S([O-])(OC)(=O)=O,5,200,93,5
293.15,20.0,0.18,Training,1-butyl-3-methylimidazolium methylsulfate,CCCCN1C=C[N+](=C1)C.COS(=O)(=O)[O-],CCCCn1cc[n+](C)c1.O=S([O-])(OC)=O,5,200,93,5
293.15,30.0,0.1813,Testing,1-butyl-3-methylimidazolium methylsulfate,CCCCN1C=C[N+](=C1)C.COS(=O)(=O)[O-],CCCCn1cc[n+](C)c1.COS(=O)(=O)[O-],5,300,94,5
293.15,30.0,0.1813,Testing,1-butyl-3-methylimidazolium methylsulfate,CCCCN1C=C[N+](=C1)C.COS(=O)(=O)[O-],O=S([O-])(OC)=O.[n+]1(C)ccn(c1)CCCC,5,300,94,5
293.15,30.0,0.1813,Testing,1-butyl-3-methylimidazolium methylsulfate,CCCCN1C=C[N+](=C1)C.COS(=O)(=O)[O-],COS([O-])(=O)=O.c1[n+](cn(c1)CCCC)C,5,300,94,5
293.15,30.0,0.1813,Testing,1-butyl-3-methylimidazolium methylsulfate,CCCCN1C=C[N+](=C1)C.COS(=O)(=O)[O-],O(S(=O)([O-])=O)C.c1[n+](ccn1CCCC)C,5,300,94,5
293.15,30.0,0.1813,Testing,1-butyl-3-methylimidazolium methylsulfate,CCCCN1C=C[N+](=C1)C.COS(=O)(=O)[O-],O=S(=O)(OC)[O-].n1(CCCC)cc[n+](C)c1,5,300,94,5
293.15,30.0,0.1813,Testing,1-butyl-3-methylimidazolium methylsulfate,CCCCN1C=C[N+](=C1)C.COS(=O)(=O)[O-],C(CC)Cn1cc[n+](c1)C.S(OC)(=O)(=O)[O-],5,300,94,5
293.15,30.0,0.1813,Testing,1-butyl-3-methylimidazolium methylsulfate,CCCCN1C=C[N+](=C1)C.COS(=O)(=O)[O-],C(C)CCn1cc[n+](C)c1.O=S(=O)([O-])OC,5,300,94,5
293.15,30.0,0.1813,Testing,1-butyl-3-methylimidazolium methylsulfate,CCCCN1C=C[N+](=C1)C.COS(=O)(=O)[O-],S(=O)([O-])(OC)=O.n1(CCCC)cc[n+](C)c1,5,300,94,5
293.15,30.0,0.1813,Testing,1-butyl-3-methylimidazolium methylsulfate,CCCCN1C=C[N+](=C1)C.COS(=O)(=O)[O-],CCCCn1cc[n+](C)c1.O=S(=O)(OC)[O-],5,300,94,5
293.15,30.0,0.1813,Testing,1-butyl-3-methylimidazolium methylsulfate,CCCCN1C=C[N+](=C1)C.COS(=O)(=O)[O-],O(C)S([O-])(=O)=O.[n+]1(C)cn(cc1)CCCC,5,300,94,5
293.15,40.0,0.1843,Training,1-butyl-3-methylimidazolium methylsulfate,CCCCN1C=C[N+](=C1)C.COS(=O)(=O)[O-],CCCCn1cc[n+](C)c1.COS(=O)(=O)[O-],5,400,95,5
293.15,40.0,0.1843,Training,1-butyl-3-methylimidazolium methylsulfate,CCCCN1C=C[N+](=C1)C.COS(=O)(=O)[O-],C(CCn1cc[n+](C)c1)C.O=S(=O)([O-])OC,5,400,95,5
293.15,40.0,0.1843,Training,1-butyl-3-methylimidazolium methylsulfate,CCCCN1C=C[N+](=C1)C.COS(=O)(=O)[O-],S(OC)(=O)([O-])=O.[n+]1(C)ccn(CCCC)c1,5,400,95,5
293.15,40.0,0.1843,Training,1-butyl-3-methylimidazolium methylsulfate,CCCCN1C=C[N+](=C1)C.COS(=O)(=O)[O-],C(CC)Cn1c[n+](C)cc1.O(S(=O)(=O)[O-])C,5,400,95,5
293.15,40.0,0.1843,Training,1-butyl-3-methylimidazolium methylsulfate,CCCCN1C=C[N+](=C1)C.COS(=O)(=O)[O-],C(n1c[n+](C)cc1)CCC.S([O-])(OC)(=O)=O,5,400,95,5
293.15,40.0,0.1843,Training,1-butyl-3-methylimidazolium methylsulfate,CCCCN1C=C[N+](=C1)C.COS(=O)(=O)[O-],COS(=O)(=O)[O-].c1n(cc[n+]1C)CCCC,5,400,95,5
293.15,40.0,0.1843,Training,1-butyl-3-methylimidazolium methylsulfate,CCCCN1C=C[N+](=C1)C.COS(=O)(=O)[O-],O=S(=O)([O-])OC.c1cn(c[n+]1C)CCCC,5,400,95,5
293.15,40.0,0.1843,Training,1-butyl-3-methylimidazolium methylsulfate,CCCCN1C=C[N+](=C1)C.COS(=O)(=O)[O-],O=S([O-])(OC)=O.[n+]1(cn(CCCC)cc1)C,5,400,95,5
293.15,40.0,0.1843,Training,1-butyl-3-methylimidazolium methylsulfate,CCCCN1C=C[N+](=C1)C.COS(=O)(=O)[O-],COS(=O)(=O)[O-].c1cn(c[n+]1C)CCCC,5,400,95,5
293.15,50.0,0.187,Training,1-butyl-3-methylimidazolium methylsulfate,CCCCN1C=C[N+](=C1)C.COS(=O)(=O)[O-],CCCCn1cc[n+](C)c1.COS(=O)(=O)[O-],5,500,96,5
293.15,50.0,0.187,Training,1-butyl-3-methylimidazolium methylsulfate,CCCCN1C=C[N+](=C1)C.COS(=O)(=O)[O-],C(Cn1c[n+](C)cc1)CC.[O-]S(OC)(=O)=O,5,500,96,5
293.15,50.0,0.187,Training,1-butyl-3-methylimidazolium methylsulfate,CCCCN1C=C[N+](=C1)C.COS(=O)(=O)[O-],CCCCn1cc[n+](c1)C.O=S([O-])(OC)=O,5,500,96,5
293.15,50.0,0.187,Training,1-butyl-3-methylimidazolium methylsulfate,CCCCN1C=C[N+](=C1)C.COS(=O)(=O)[O-],O=S([O-])(=O)OC.c1cn(CCCC)c[n+]1C,5,500,96,5