T/K,P/MPa,TC/W m-1 K-1,Data type,Name,SMILES,Normalized SMILES,index,P/bar,RANDOM,IL
273.15,0.1,0.1238,Training,1-hexyl-3-methylimidazolium bis(trifluoromethylsulfonyl)imide,CCCCCCN1C=C[N+](=C1)C.C(F)(F)(F)S(=O)(=O)[N-]S(=O)(=O)C(F)(F)F,FC(S([N-]S(=O)(C(F)(F)F)=O)(=O)=O)(F)F.c1n(cc[n+]1C)CCCCCC,13,1,261,13
273.15,0.1,0.1238,Training,1-hexyl-3-methylimidazolium bis(trifluoromethylsulfonyl)imide,CCCCCCN1C=C[N+](=C1)C.C(F)(F)(F)S(=O)(=O)[N-]S(=O)(=O)C(F)(F)F,C(F)(S(=O)([N-]S(C(F)(F)F)(=O)=O)=O)(F)F.c1cn(CCCCCC)c[n+]1C,13,1,261,13
273.15,0.1,0.1238,Training,1-hexyl-3-methylimidazolium bis(trifluoromethylsulfonyl)imide,CCCCCCN1C=C[N+](=C1)C.C(F)(F)(F)S(=O)(=O)[N-]S(=O)(=O)C(F)(F)F,[N-](S(=O)(C(F)(F)F)=O)S(=O)(=O)C(F)(F)F.c1cn(c[n+]1C)CCCCCC,13,1,261,13
273.15,0.1,0.1238,Training,1-hexyl-3-methylimidazolium bis(trifluoromethylsulfonyl)imide,CCCCCCN1C=C[N+](=C1)C.C(F)(F)(F)S(=O)(=O)[N-]S(=O)(=O)C(F)(F)F,C(n1c[n+](cc1)C)CCCCC.O=S(=O)([N-]S(=O)(=O)C(F)(F)F)C(F)(F)F,13,1,261,13
273.15,0.1,0.1238,Training,1-hexyl-3-methylimidazolium bis(trifluoromethylsulfonyl)imide,CCCCCCN1C=C[N+](=C1)C.C(F)(F)(F)S(=O)(=O)[N-]S(=O)(=O)C(F)(F)F,C[n+]1ccn(c1)CCCCCC.O=S([N-]S(=O)(C(F)(F)F)=O)(C(F)(F)F)=O,13,1,261,13
273.15,0.1,0.1238,Training,1-hexyl-3-methylimidazolium bis(trifluoromethylsulfonyl)imide,CCCCCCN1C=C[N+](=C1)C.C(F)(F)(F)S(=O)(=O)[N-]S(=O)(=O)C(F)(F)F,FC(F)(S(=O)([N-]S(=O)(C(F)(F)F)=O)=O)F.c1n(c[n+](c1)C)CCCCCC,13,1,261,13
273.15,0.1,0.1238,Training,1-hexyl-3-methylimidazolium bis(trifluoromethylsulfonyl)imide,CCCCCCN1C=C[N+](=C1)C.C(F)(F)(F)S(=O)(=O)[N-]S(=O)(=O)C(F)(F)F,FC(F)(F)S([N-]S(=O)(C(F)(F)F)=O)(=O)=O.c1cn(CCCCCC)c[n+]1C,13,1,261,13
283.15,0.1,0.1224,Training,1-hexyl-3-methylimidazolium bis(trifluoromethylsulfonyl)imide,CCCCCCN1C=C[N+](=C1)C.C(F)(F)(F)S(=O)(=O)[N-]S(=O)(=O)C(F)(F)F,CCCCCCn1cc[n+](C)c1.O=S(=O)([N-]S(=O)(=O)C(F)(F)F)C(F)(F)F,13,1,262,13
283.15,0.1,0.1224,Training,1-hexyl-3-methylimidazolium bis(trifluoromethylsulfonyl)imide,CCCCCCN1C=C[N+](=C1)C.C(F)(F)(F)S(=O)(=O)[N-]S(=O)(=O)C(F)(F)F,C(CCCn1c[n+](cc1)C)CC.FC(F)(S(=O)(=O)[N-]S(C(F)(F)F)(=O)=O)F,13,1,262,13
283.15,0.1,0.1224,Training,1-hexyl-3-methylimidazolium bis(trifluoromethylsulfonyl)imide,CCCCCCN1C=C[N+](=C1)C.C(F)(F)(F)S(=O)(=O)[N-]S(=O)(=O)C(F)(F)F,C(Cn1cc[n+](c1)C)CCCC.O=S(C(F)(F)F)(=O)[N-]S(=O)(=O)C(F)(F)F,13,1,262,13
283.15,0.1,0.1224,Training,1-hexyl-3-methylimidazolium bis(trifluoromethylsulfonyl)imide,CCCCCCN1C=C[N+](=C1)C.C(F)(F)(F)S(=O)(=O)[N-]S(=O)(=O)C(F)(F)F,C(Cn1cc[n+](C)c1)CCCC.S([N-]S(C(F)(F)F)(=O)=O)(C(F)(F)F)(=O)=O,13,1,262,13
283.15,0.1,0.1224,Training,1-hexyl-3-methylimidazolium bis(trifluoromethylsulfonyl)imide,CCCCCCN1C=C[N+](=C1)C.C(F)(F)(F)S(=O)(=O)[N-]S(=O)(=O)C(F)(F)F,[N-](S(=O)(C(F)(F)F)=O)S(C(F)(F)F)(=O)=O.c1cn(CCCCCC)c[n+]1C,13,1,262,13
283.15,0.1,0.1224,Training,1-hexyl-3-methylimidazolium bis(trifluoromethylsulfonyl)imide,CCCCCCN1C=C[N+](=C1)C.C(F)(F)(F)S(=O)(=O)[N-]S(=O)(=O)C(F)(F)F,FC(F)(F)S(=O)(=O)[N-]S(C(F)(F)F)(=O)=O.c1n(CCCCCC)c[n+](C)c1,13,1,262,13
283.15,0.1,0.1224,Training,1-hexyl-3-methylimidazolium bis(trifluoromethylsulfonyl)imide,CCCCCCN1C=C[N+](=C1)C.C(F)(F)(F)S(=O)(=O)[N-]S(=O)(=O)C(F)(F)F,C(CC)CCCn1cc[n+](c1)C.O=S(C(F)(F)F)([N-]S(=O)(C(F)(F)F)=O)=O,13,1,262,13
283.15,0.1,0.1224,Training,1-hexyl-3-methylimidazolium bis(trifluoromethylsulfonyl)imide,CCCCCCN1C=C[N+](=C1)C.C(F)(F)(F)S(=O)(=O)[N-]S(=O)(=O)C(F)(F)F,C(F)(S([N-]S(=O)(=O)C(F)(F)F)(=O)=O)(F)F.CCCCCCn1cc[n+](C)c1,13,1,262,13
283.15,0.1,0.1224,Training,1-hexyl-3-methylimidazolium bis(trifluoromethylsulfonyl)imide,CCCCCCN1C=C[N+](=C1)C.C(F)(F)(F)S(=O)(=O)[N-]S(=O)(=O)C(F)(F)F,C(CCCCC)n1cc[n+](c1)C.O=S(=O)([N-]S(C(F)(F)F)(=O)=O)C(F)(F)F,13,1,262,13
283.15,0.1,0.1224,Training,1-hexyl-3-methylimidazolium bis(trifluoromethylsulfonyl)imide,CCCCCCN1C=C[N+](=C1)C.C(F)(F)(F)S(=O)(=O)[N-]S(=O)(=O)C(F)(F)F,CCCCCCn1cc[n+](C)c1.FC(S([N-]S(C(F)(F)F)(=O)=O)(=O)=O)(F)F,13,1,262,13
293.15,0.1,0.1219,Training,1-hexyl-3-methylimidazolium bis(trifluoromethylsulfonyl)imide,CCCCCCN1C=C[N+](=C1)C.C(F)(F)(F)S(=O)(=O)[N-]S(=O)(=O)C(F)(F)F,CCCCCCn1cc[n+](C)c1.O=S(=O)([N-]S(=O)(=O)C(F)(F)F)C(F)(F)F,13,1,263,13
293.15,0.1,0.1219,Training,1-hexyl-3-methylimidazolium bis(trifluoromethylsulfonyl)imide,CCCCCCN1C=C[N+](=C1)C.C(F)(F)(F)S(=O)(=O)[N-]S(=O)(=O)C(F)(F)F,C(CCCC)Cn1cc[n+](c1)C.O=S(=O)(C(F)(F)F)[N-]S(=O)(=O)C(F)(F)F,13,1,263,13
293.15,0.1,0.1219,Training,1-hexyl-3-methylimidazolium bis(trifluoromethylsulfonyl)imide,CCCCCCN1C=C[N+](=C1)C.C(F)(F)(F)S(=O)(=O)[N-]S(=O)(=O)C(F)(F)F,O=S(C(F)(F)F)([N-]S(=O)(C(F)(F)F)=O)=O.n1(cc[n+](c1)C)CCCCCC,13,1,263,13
293.15,0.1,0.1219,Training,1-hexyl-3-methylimidazolium bis(trifluoromethylsulfonyl)imide,CCCCCCN1C=C[N+](=C1)C.C(F)(F)(F)S(=O)(=O)[N-]S(=O)(=O)C(F)(F)F,C(CCCCn1c[n+](cc1)C)C.O=S(C(F)(F)F)(=O)[N-]S(=O)(=O)C(F)(F)F,13,1,263,13
293.15,0.1,0.1219,Training,1-hexyl-3-methylimidazolium bis(trifluoromethylsulfonyl)imide,CCCCCCN1C=C[N+](=C1)C.C(F)(F)(F)S(=O)(=O)[N-]S(=O)(=O)C(F)(F)F,S(=O)([N-]S(=O)(=O)C(F)(F)F)(C(F)(F)F)=O.c1n(cc[n+]1C)CCCCCC,13,1,263,13
293.15,0.1,0.1219,Training,1-hexyl-3-methylimidazolium bis(trifluoromethylsulfonyl)imide,CCCCCCN1C=C[N+](=C1)C.C(F)(F)(F)S(=O)(=O)[N-]S(=O)(=O)C(F)(F)F,C(CCn1c[n+](C)cc1)CCC.C(F)(S([N-]S(=O)(C(F)(F)F)=O)(=O)=O)(F)F,13,1,263,13
293.15,0.1,0.1219,Training,1-hexyl-3-methylimidazolium bis(trifluoromethylsulfonyl)imide,CCCCCCN1C=C[N+](=C1)C.C(F)(F)(F)S(=O)(=O)[N-]S(=O)(=O)C(F)(F)F,O=S(=O)([N-]S(=O)(C(F)(F)F)=O)C(F)(F)F.c1[n+](C)cn(c1)CCCCCC,13,1,263,13
293.15,0.1,0.1219,Training,1-hexyl-3-methylimidazolium bis(trifluoromethylsulfonyl)imide,CCCCCCN1C=C[N+](=C1)C.C(F)(F)(F)S(=O)(=O)[N-]S(=O)(=O)C(F)(F)F,FC(F)(S(=O)([N-]S(=O)(=O)C(F)(F)F)=O)F.c1cn(CCCCCC)c[n+]1C,13,1,263,13
293.15,0.1,0.1219,Training,1-hexyl-3-methylimidazolium bis(trifluoromethylsulfonyl)imide,CCCCCCN1C=C[N+](=C1)C.C(F)(F)(F)S(=O)(=O)[N-]S(=O)(=O)C(F)(F)F,C(S(=O)(=O)[N-]S(=O)(=O)C(F)(F)F)(F)(F)F.[n+]1(C)ccn(c1)CCCCCC,13,1,263,13
293.15,0.1,0.1219,Training,1-hexyl-3-methylimidazolium bis(trifluoromethylsulfonyl)imide,CCCCCCN1C=C[N+](=C1)C.C(F)(F)(F)S(=O)(=O)[N-]S(=O)(=O)C(F)(F)F,C(Cn1cc[n+](C)c1)CCCC.FC(F)(S(=O)([N-]S(C(F)(F)F)(=O)=O)=O)F,13,1,263,13
303.15,0.1,0.1237,Training,1-hexyl-3-methylimidazolium bis(trifluoromethylsulfonyl)imide,CCCCCCN1C=C[N+](=C1)C.C(F)(F)(F)S(=O)(=O)[N-]S(=O)(=O)C(F)(F)F,CCCCCCn1cc[n+](C)c1.O=S(=O)([N-]S(=O)(=O)C(F)(F)F)C(F)(F)F,13,1,264,13
303.15,0.1,0.1237,Training,1-hexyl-3-methylimidazolium bis(trifluoromethylsulfonyl)imide,CCCCCCN1C=C[N+](=C1)C.C(F)(F)(F)S(=O)(=O)[N-]S(=O)(=O)C(F)(F)F,C(n1cc[n+](C)c1)CCCCC.FC(F)(F)S(=O)(=O)[N-]S(=O)(C(F)(F)F)=O,13,1,264,13
303.15,0.1,0.1237,Training,1-hexyl-3-methylimidazolium bis(trifluoromethylsulfonyl)imide,CCCCCCN1C=C[N+](=C1)C.C(F)(F)(F)S(=O)(=O)[N-]S(=O)(=O)C(F)(F)F,C(C)CCCCn1c[n+](C)cc1.O=S(C(F)(F)F)(=O)[N-]S(=O)(C(F)(F)F)=O,13,1,264,13
303.15,0.1,0.1237,Training,1-hexyl-3-methylimidazolium bis(trifluoromethylsulfonyl)imide,CCCCCCN1C=C[N+](=C1)C.C(F)(F)(F)S(=O)(=O)[N-]S(=O)(=O)C(F)(F)F,FC(F)(F)S([N-]S(=O)(=O)C(F)(F)F)(=O)=O.c1c[n+](cn1CCCCCC)C,13,1,264,13
303.15,0.1,0.1237,Training,1-hexyl-3-methylimidazolium bis(trifluoromethylsulfonyl)imide,CCCCCCN1C=C[N+](=C1)C.C(F)(F)(F)S(=O)(=O)[N-]S(=O)(=O)C(F)(F)F,S([N-]S(C(F)(F)F)(=O)=O)(C(F)(F)F)(=O)=O.c1[n+](C)ccn1CCCCCC,13,1,264,13
303.15,0.1,0.1237,Training,1-hexyl-3-methylimidazolium bis(trifluoromethylsulfonyl)imide,CCCCCCN1C=C[N+](=C1)C.C(F)(F)(F)S(=O)(=O)[N-]S(=O)(=O)C(F)(F)F,O=S(C(F)(F)F)([N-]S(C(F)(F)F)(=O)=O)=O.c1[n+](ccn1CCCCCC)C,13,1,264,13
303.15,0.1,0.1237,Training,1-hexyl-3-methylimidazolium bis(trifluoromethylsulfonyl)imide,CCCCCCN1C=C[N+](=C1)C.C(F)(F)(F)S(=O)(=O)[N-]S(=O)(=O)C(F)(F)F,C(C)CCCCn1c[n+](C)cc1.FC(F)(S([N-]S(C(F)(F)F)(=O)=O)(=O)=O)F,13,1,264,13
303.15,0.1,0.1237,Training,1-hexyl-3-methylimidazolium bis(trifluoromethylsulfonyl)imide,CCCCCCN1C=C[N+](=C1)C.C(F)(F)(F)S(=O)(=O)[N-]S(=O)(=O)C(F)(F)F,C(CCCn1c[n+](cc1)C)CC.S(=O)(C(F)(F)F)(=O)[N-]S(=O)(C(F)(F)F)=O,13,1,264,13
303.15,0.1,0.1237,Training,1-hexyl-3-methylimidazolium bis(trifluoromethylsulfonyl)imide,CCCCCCN1C=C[N+](=C1)C.C(F)(F)(F)S(=O)(=O)[N-]S(=O)(=O)C(F)(F)F,C(Cn1c[n+](C)cc1)CCCC.O=S([N-]S(C(F)(F)F)(=O)=O)(=O)C(F)(F)F,13,1,264,13
303.15,0.1,0.1237,Training,1-hexyl-3-methylimidazolium bis(trifluoromethylsulfonyl)imide,CCCCCCN1C=C[N+](=C1)C.C(F)(F)(F)S(=O)(=O)[N-]S(=O)(=O)C(F)(F)F,FC(F)(S([N-]S(=O)(=O)C(F)(F)F)(=O)=O)F.[n+]1(C)cn(CCCCCC)cc1,13,1,264,13
313.15,0.1,0.122,Training,1-hexyl-3-methylimidazolium bis(trifluoromethylsulfonyl)imide,CCCCCCN1C=C[N+](=C1)C.C(F)(F)(F)S(=O)(=O)[N-]S(=O)(=O)C(F)(F)F,CCCCCCn1cc[n+](C)c1.O=S(=O)([N-]S(=O)(=O)C(F)(F)F)C(F)(F)F,13,1,265,13
313.15,0.1,0.122,Training,1-hexyl-3-methylimidazolium bis(trifluoromethylsulfonyl)imide,CCCCCCN1C=C[N+](=C1)C.C(F)(F)(F)S(=O)(=O)[N-]S(=O)(=O)C(F)(F)F,FC(S(=O)(=O)[N-]S(=O)(=O)C(F)(F)F)(F)F.c1n(CCCCCC)c[n+](c1)C,13,1,265,13
313.15,0.1,0.122,Training,1-hexyl-3-methylimidazolium bis(trifluoromethylsulfonyl)imide,CCCCCCN1C=C[N+](=C1)C.C(F)(F)(F)S(=O)(=O)[N-]S(=O)(=O)C(F)(F)F,S(C(F)(F)F)([N-]S(=O)(=O)C(F)(F)F)(=O)=O.n1(cc[n+](c1)C)CCCCCC,13,1,265,13
313.15,0.1,0.122,Training,1-hexyl-3-methylimidazolium bis(trifluoromethylsulfonyl)imide,CCCCCCN1C=C[N+](=C1)C.C(F)(F)(F)S(=O)(=O)[N-]S(=O)(=O)C(F)(F)F,C(F)(F)(F)S(=O)([N-]S(=O)(=O)C(F)(F)F)=O.C[n+]1cn(cc1)CCCCCC,13,1,265,13
313.15,0.1,0.122,Training,1-hexyl-3-methylimidazolium bis(trifluoromethylsulfonyl)imide,CCCCCCN1C=C[N+](=C1)C.C(F)(F)(F)S(=O)(=O)[N-]S(=O)(=O)C(F)(F)F,FC(F)(S(=O)(=O)[N-]S(=O)(C(F)(F)F)=O)F.[n+]1(C)ccn(CCCCCC)c1,13,1,265,13
313.15,0.1,0.122,Training,1-hexyl-3-methylimidazolium bis(trifluoromethylsulfonyl)imide,CCCCCCN1C=C[N+](=C1)C.C(F)(F)(F)S(=O)(=O)[N-]S(=O)(=O)C(F)(F)F,C(CCCCC)n1c[n+](cc1)C.FC(F)(F)S(=O)(=O)[N-]S(=O)(C(F)(F)F)=O,13,1,265,13
313.15,0.1,0.122,Training,1-hexyl-3-methylimidazolium bis(trifluoromethylsulfonyl)imide,CCCCCCN1C=C[N+](=C1)C.C(F)(F)(F)S(=O)(=O)[N-]S(=O)(=O)C(F)(F)F,O=S(=O)([N-]S(=O)(=O)C(F)(F)F)C(F)(F)F.c1cn(CCCCCC)c[n+]1C,13,1,265,13
313.15,0.1,0.122,Training,1-hexyl-3-methylimidazolium bis(trifluoromethylsulfonyl)imide,CCCCCCN1C=C[N+](=C1)C.C(F)(F)(F)S(=O)(=O)[N-]S(=O)(=O)C(F)(F)F,C[n+]1cn(CCCCCC)cc1.O=S([N-]S(C(F)(F)F)(=O)=O)(=O)C(F)(F)F,13,1,265,13
313.15,0.1,0.122,Training,1-hexyl-3-methylimidazolium bis(trifluoromethylsulfonyl)imide,CCCCCCN1C=C[N+](=C1)C.C(F)(F)(F)S(=O)(=O)[N-]S(=O)(=O)C(F)(F)F,[N-](S(=O)(=O)C(F)(F)F)S(=O)(C(F)(F)F)=O.n1(CCCCCC)c[n+](cc1)C,13,1,265,13
313.15,0.1,0.122,Training,1-hexyl-3-methylimidazolium bis(trifluoromethylsulfonyl)imide,CCCCCCN1C=C[N+](=C1)C.C(F)(F)(F)S(=O)(=O)[N-]S(=O)(=O)C(F)(F)F,C(CCCCn1c[n+](C)cc1)C.O=S(C(F)(F)F)([N-]S(=O)(C(F)(F)F)=O)=O,13,1,265,13
323.15,0.1,0.1201,Testing,1-hexyl-3-methylimidazolium bis(trifluoromethylsulfonyl)imide,CCCCCCN1C=C[N+](=C1)C.C(F)(F)(F)S(=O)(=O)[N-]S(=O)(=O)C(F)(F)F,CCCCCCn1cc[n+](C)c1.O=S(=O)([N-]S(=O)(=O)C(F)(F)F)C(F)(F)F,13,1,266,13
323.15,0.1,0.1201,Testing,1-hexyl-3-methylimidazolium bis(trifluoromethylsulfonyl)imide,CCCCCCN1C=C[N+](=C1)C.C(F)(F)(F)S(=O)(=O)[N-]S(=O)(=O)C(F)(F)F,FC(F)(S([N-]S(=O)(=O)C(F)(F)F)(=O)=O)F.c1c[n+](cn1CCCCCC)C,13,1,266,13
323.15,0.1,0.1201,Testing,1-hexyl-3-methylimidazolium bis(trifluoromethylsulfonyl)imide,CCCCCCN1C=C[N+](=C1)C.C(F)(F)(F)S(=O)(=O)[N-]S(=O)(=O)C(F)(F)F,CCCCCCn1cc[n+](C)c1.FC(S(=O)(=O)[N-]S(C(F)(F)F)(=O)=O)(F)F,13,1,266,13
323.15,0.1,0.1201,Testing,1-hexyl-3-methylimidazolium bis(trifluoromethylsulfonyl)imide,CCCCCCN1C=C[N+](=C1)C.C(F)(F)(F)S(=O)(=O)[N-]S(=O)(=O)C(F)(F)F,C(S(=O)([N-]S(=O)(C(F)(F)F)=O)=O)(F)(F)F.n1(CCCCCC)cc[n+](C)c1,13,1,266,13
323.15,0.1,0.1201,Testing,1-hexyl-3-methylimidazolium bis(trifluoromethylsulfonyl)imide,CCCCCCN1C=C[N+](=C1)C.C(F)(F)(F)S(=O)(=O)[N-]S(=O)(=O)C(F)(F)F,C(C)CCCCn1c[n+](cc1)C.FC(F)(S([N-]S(C(F)(F)F)(=O)=O)(=O)=O)F,13,1,266,13
323.15,0.1,0.1201,Testing,1-hexyl-3-methylimidazolium bis(trifluoromethylsulfonyl)imide,CCCCCCN1C=C[N+](=C1)C.C(F)(F)(F)S(=O)(=O)[N-]S(=O)(=O)C(F)(F)F,C[n+]1cn(CCCCCC)cc1.O=S([N-]S(=O)(C(F)(F)F)=O)(C(F)(F)F)=O,13,1,266,13
323.15,0.1,0.1201,Testing,1-hexyl-3-methylimidazolium bis(trifluoromethylsulfonyl)imide,CCCCCCN1C=C[N+](=C1)C.C(F)(F)(F)S(=O)(=O)[N-]S(=O)(=O)C(F)(F)F,C(S([N-]S(C(F)(F)F)(=O)=O)(=O)=O)(F)(F)F.CCCCCCn1cc[n+](c1)C,13,1,266,13
323.15,0.1,0.1201,Testing,1-hexyl-3-methylimidazolium bis(trifluoromethylsulfonyl)imide,CCCCCCN1C=C[N+](=C1)C.C(F)(F)(F)S(=O)(=O)[N-]S(=O)(=O)C(F)(F)F,FC(F)(S(=O)([N-]S(=O)(=O)C(F)(F)F)=O)F.n1(c[n+](cc1)C)CCCCCC,13,1,266,13
323.15,0.1,0.1201,Testing,1-hexyl-3-methylimidazolium bis(trifluoromethylsulfonyl)imide,CCCCCCN1C=C[N+](=C1)C.C(F)(F)(F)S(=O)(=O)[N-]S(=O)(=O)C(F)(F)F,CCCCCCn1c[n+](C)cc1.S(=O)([N-]S(C(F)(F)F)(=O)=O)(=O)C(F)(F)F,13,1,266,13
323.15,0.1,0.1201,Testing,1-hexyl-3-methylimidazolium bis(trifluoromethylsulfonyl)imide,CCCCCCN1C=C[N+](=C1)C.C(F)(F)(F)S(=O)(=O)[N-]S(=O)(=O)C(F)(F)F,C(C)CCCCn1cc[n+](C)c1.FC(F)(S(=O)(=O)[N-]S(=O)(C(F)(F)F)=O)F,13,1,266,13
333.15,0.1,0.1208,Training,1-hexyl-3-methylimidazolium bis(trifluoromethylsulfonyl)imide,CCCCCCN1C=C[N+](=C1)C.C(F)(F)(F)S(=O)(=O)[N-]S(=O)(=O)C(F)(F)F,CCCCCCn1cc[n+](C)c1.O=S(=O)([N-]S(=O)(=O)C(F)(F)F)C(F)(F)F,13,1,267,13
333.15,0.1,0.1208,Training,1-hexyl-3-methylimidazolium bis(trifluoromethylsulfonyl)imide,CCCCCCN1C=C[N+](=C1)C.C(F)(F)(F)S(=O)(=O)[N-]S(=O)(=O)C(F)(F)F,FC(F)(F)S(=O)(=O)[N-]S(=O)(=O)C(F)(F)F.n1(CCCCCC)c[n+](C)cc1,13,1,267,13
333.15,0.1,0.1208,Training,1-hexyl-3-methylimidazolium bis(trifluoromethylsulfonyl)imide,CCCCCCN1C=C[N+](=C1)C.C(F)(F)(F)S(=O)(=O)[N-]S(=O)(=O)C(F)(F)F,O=S([N-]S(=O)(C(F)(F)F)=O)(=O)C(F)(F)F.[n+]1(ccn(c1)CCCCCC)C,13,1,267,13
333.15,0.1,0.1208,Training,1-hexyl-3-methylimidazolium bis(trifluoromethylsulfonyl)imide,CCCCCCN1C=C[N+](=C1)C.C(F)(F)(F)S(=O)(=O)[N-]S(=O)(=O)C(F)(F)F,C(n1cc[n+](c1)C)CCCCC.O=S([N-]S(=O)(=O)C(F)(F)F)(C(F)(F)F)=O,13,1,267,13
333.15,0.1,0.1208,Training,1-hexyl-3-methylimidazolium bis(trifluoromethylsulfonyl)imide,CCCCCCN1C=C[N+](=C1)C.C(F)(F)(F)S(=O)(=O)[N-]S(=O)(=O)C(F)(F)F,C(CCCC)Cn1c[n+](cc1)C.FC(F)(S([N-]S(=O)(=O)C(F)(F)F)(=O)=O)F,13,1,267,13
333.15,0.1,0.1208,Training,1-hexyl-3-methylimidazolium bis(trifluoromethylsulfonyl)imide,CCCCCCN1C=C[N+](=C1)C.C(F)(F)(F)S(=O)(=O)[N-]S(=O)(=O)C(F)(F)F,C[n+]1cn(CCCCCC)cc1.O=S([N-]S(=O)(C(F)(F)F)=O)(=O)C(F)(F)F,13,1,267,13
333.15,0.1,0.1208,Training,1-hexyl-3-methylimidazolium bis(trifluoromethylsulfonyl)imide,CCCCCCN1C=C[N+](=C1)C.C(F)(F)(F)S(=O)(=O)[N-]S(=O)(=O)C(F)(F)F,FC(S(=O)(=O)[N-]S(=O)(=O)C(F)(F)F)(F)F.c1n(CCCCCC)c[n+](C)c1,13,1,267,13
333.15,0.1,0.1208,Training,1-hexyl-3-methylimidazolium bis(trifluoromethylsulfonyl)imide,CCCCCCN1C=C[N+](=C1)C.C(F)(F)(F)S(=O)(=O)[N-]S(=O)(=O)C(F)(F)F,O=S([N-]S(C(F)(F)F)(=O)=O)(C(F)(F)F)=O.c1[n+](C)cn(c1)CCCCCC,13,1,267,13
333.15,0.1,0.1208,Training,1-hexyl-3-methylimidazolium bis(trifluoromethylsulfonyl)imide,CCCCCCN1C=C[N+](=C1)C.C(F)(F)(F)S(=O)(=O)[N-]S(=O)(=O)C(F)(F)F,C(C)CCCCn1cc[n+](c1)C.C(F)(F)(F)S(=O)(=O)[N-]S(=O)(C(F)(F)F)=O,13,1,267,13
333.15,0.1,0.1208,Training,1-hexyl-3-methylimidazolium bis(trifluoromethylsulfonyl)imide,CCCCCCN1C=C[N+](=C1)C.C(F)(F)(F)S(=O)(=O)[N-]S(=O)(=O)C(F)(F)F,C(CCCC)Cn1cc[n+](C)c1.C(F)(F)(S(=O)([N-]S(C(F)(F)F)(=O)=O)=O)F,13,1,267,13
343.15,0.1,0.1212,Training,1-hexyl-3-methylimidazolium bis(trifluoromethylsulfonyl)imide,CCCCCCN1C=C[N+](=C1)C.C(F)(F)(F)S(=O)(=O)[N-]S(=O)(=O)C(F)(F)F,CCCCCCn1cc[n+](C)c1.O=S(=O)([N-]S(=O)(=O)C(F)(F)F)C(F)(F)F,13,1,268,13
343.15,0.1,0.1212,Training,1-hexyl-3-methylimidazolium bis(trifluoromethylsulfonyl)imide,CCCCCCN1C=C[N+](=C1)C.C(F)(F)(F)S(=O)(=O)[N-]S(=O)(=O)C(F)(F)F,FC(F)(F)S(=O)(=O)[N-]S(=O)(=O)C(F)(F)F.c1[n+](ccn1CCCCCC)C,13,1,268,13
343.15,0.1,0.1212,Training,1-hexyl-3-methylimidazolium bis(trifluoromethylsulfonyl)imide,CCCCCCN1C=C[N+](=C1)C.C(F)(F)(F)S(=O)(=O)[N-]S(=O)(=O)C(F)(F)F,C(CCCCn1c[n+](cc1)C)C.S(=O)(C(F)(F)F)(=O)[N-]S(C(F)(F)F)(=O)=O,13,1,268,13
343.15,0.1,0.1212,Training,1-hexyl-3-methylimidazolium bis(trifluoromethylsulfonyl)imide,CCCCCCN1C=C[N+](=C1)C.C(F)(F)(F)S(=O)(=O)[N-]S(=O)(=O)C(F)(F)F,C(CCC)CCn1c[n+](cc1)C.FC(F)(F)S([N-]S(C(F)(F)F)(=O)=O)(=O)=O,13,1,268,13
343.15,0.1,0.1212,Training,1-hexyl-3-methylimidazolium bis(trifluoromethylsulfonyl)imide,CCCCCCN1C=C[N+](=C1)C.C(F)(F)(F)S(=O)(=O)[N-]S(=O)(=O)C(F)(F)F,O=S(=O)(C(F)(F)F)[N-]S(C(F)(F)F)(=O)=O.[n+]1(cn(cc1)CCCCCC)C,13,1,268,13
343.15,0.1,0.1212,Training,1-hexyl-3-methylimidazolium bis(trifluoromethylsulfonyl)imide,CCCCCCN1C=C[N+](=C1)C.C(F)(F)(F)S(=O)(=O)[N-]S(=O)(=O)C(F)(F)F,O=S(C(F)(F)F)([N-]S(=O)(C(F)(F)F)=O)=O.n1(c[n+](cc1)C)CCCCCC,13,1,268,13
343.15,0.1,0.1212,Training,1-hexyl-3-methylimidazolium bis(trifluoromethylsulfonyl)imide,CCCCCCN1C=C[N+](=C1)C.C(F)(F)(F)S(=O)(=O)[N-]S(=O)(=O)C(F)(F)F,FC(S(=O)(=O)[N-]S(=O)(=O)C(F)(F)F)(F)F.[n+]1(C)ccn(CCCCCC)c1,13,1,268,13
343.15,0.1,0.1212,Training,1-hexyl-3-methylimidazolium bis(trifluoromethylsulfonyl)imide,CCCCCCN1C=C[N+](=C1)C.C(F)(F)(F)S(=O)(=O)[N-]S(=O)(=O)C(F)(F)F,FC(S(=O)(=O)[N-]S(C(F)(F)F)(=O)=O)(F)F.[n+]1(ccn(CCCCCC)c1)C,13,1,268,13
343.15,0.1,0.1212,Training,1-hexyl-3-methylimidazolium bis(trifluoromethylsulfonyl)imide,CCCCCCN1C=C[N+](=C1)C.C(F)(F)(F)S(=O)(=O)[N-]S(=O)(=O)C(F)(F)F,C(S(=O)([N-]S(C(F)(F)F)(=O)=O)=O)(F)(F)F.c1[n+](C)ccn1CCCCCC,13,1,268,13
343.15,0.1,0.1212,Training,1-hexyl-3-methylimidazolium bis(trifluoromethylsulfonyl)imide,CCCCCCN1C=C[N+](=C1)C.C(F)(F)(F)S(=O)(=O)[N-]S(=O)(=O)C(F)(F)F,FC(S(=O)([N-]S(=O)(=O)C(F)(F)F)=O)(F)F.[n+]1(C)ccn(CCCCCC)c1,13,1,268,13
353.15,0.1,0.1209,Training,1-hexyl-3-methylimidazolium bis(trifluoromethylsulfonyl)imide,CCCCCCN1C=C[N+](=C1)C.C(F)(F)(F)S(=O)(=O)[N-]S(=O)(=O)C(F)(F)F,CCCCCCn1cc[n+](C)c1.O=S(=O)([N-]S(=O)(=O)C(F)(F)F)C(F)(F)F,13,1,269,13
353.15,0.1,0.1209,Training,1-hexyl-3-methylimidazolium bis(trifluoromethylsulfonyl)imide,CCCCCCN1C=C[N+](=C1)C.C(F)(F)(F)S(=O)(=O)[N-]S(=O)(=O)C(F)(F)F,O=S(=O)(C(F)(F)F)[N-]S(C(F)(F)F)(=O)=O.c1n(CCCCCC)cc[n+]1C,13,1,269,13
353.15,0.1,0.1209,Training,1-hexyl-3-methylimidazolium bis(trifluoromethylsulfonyl)imide,CCCCCCN1C=C[N+](=C1)C.C(F)(F)(F)S(=O)(=O)[N-]S(=O)(=O)C(F)(F)F,C(Cn1cc[n+](C)c1)CCCC.O=S([N-]S(C(F)(F)F)(=O)=O)(C(F)(F)F)=O,13,1,269,13
353.15,0.1,0.1209,Training,1-hexyl-3-methylimidazolium bis(trifluoromethylsulfonyl)imide,CCCCCCN1C=C[N+](=C1)C.C(F)(F)(F)S(=O)(=O)[N-]S(=O)(=O)C(F)(F)F,S(=O)([N-]S(=O)(=O)C(F)(F)F)(C(F)(F)F)=O.c1c[n+](C)cn1CCCCCC,13,1,269,13
353.15,0.1,0.1209,Training,1-hexyl-3-methylimidazolium bis(trifluoromethylsulfonyl)imide,CCCCCCN1C=C[N+](=C1)C.C(F)(F)(F)S(=O)(=O)[N-]S(=O)(=O)C(F)(F)F,C(Cn1cc[n+](c1)C)CCCC.FC(F)(F)S([N-]S(=O)(C(F)(F)F)=O)(=O)=O,13,1,269,13
353.15,0.1,0.1209,Training,1-hexyl-3-methylimidazolium bis(trifluoromethylsulfonyl)imide,CCCCCCN1C=C[N+](=C1)C.C(F)(F)(F)S(=O)(=O)[N-]S(=O)(=O)C(F)(F)F,C(CCCCn1cc[n+](C)c1)C.S(=O)(C(F)(F)F)([N-]S(=O)(C(F)(F)F)=O)=O,13,1,269,13
353.15,0.1,0.1209,Training,1-hexyl-3-methylimidazolium bis(trifluoromethylsulfonyl)imide,CCCCCCN1C=C[N+](=C1)C.C(F)(F)(F)S(=O)(=O)[N-]S(=O)(=O)C(F)(F)F,FC(S([N-]S(C(F)(F)F)(=O)=O)(=O)=O)(F)F.c1cn(c[n+]1C)CCCCCC,13,1,269,13
353.15,0.1,0.1209,Training,1-hexyl-3-methylimidazolium bis(trifluoromethylsulfonyl)imide,CCCCCCN1C=C[N+](=C1)C.C(F)(F)(F)S(=O)(=O)[N-]S(=O)(=O)C(F)(F)F,O=S(C(F)(F)F)(=O)[N-]S(=O)(=O)C(F)(F)F.n1(CCCCCC)c[n+](cc1)C,13,1,269,13
353.15,0.1,0.1209,Training,1-hexyl-3-methylimidazolium bis(trifluoromethylsulfonyl)imide,CCCCCCN1C=C[N+](=C1)C.C(F)(F)(F)S(=O)(=O)[N-]S(=O)(=O)C(F)(F)F,C(CCCCn1c[n+](cc1)C)C.FC(F)(F)S([N-]S(=O)(C(F)(F)F)=O)(=O)=O,13,1,269,13
353.15,0.1,0.1209,Training,1-hexyl-3-methylimidazolium bis(trifluoromethylsulfonyl)imide,CCCCCCN1C=C[N+](=C1)C.C(F)(F)(F)S(=O)(=O)[N-]S(=O)(=O)C(F)(F)F,FC(S([N-]S(=O)(=O)C(F)(F)F)(=O)=O)(F)F.[n+]1(C)cn(CCCCCC)cc1,13,1,269,13
273.15,0.1,0.1209,Testing,"1,3-dibutylimidazolium bis(trifluoromethylsulfonyl)imide",CCCCN1C=C[N+](=C1)CCCC.C(F)(F)(F)S(=O)(=O)[N-]S(=O)(=O)C(F)(F)F,CCCCn1cc[n+](CCCC)c1.O=S(=O)([N-]S(=O)(=O)C(F)(F)F)C(F)(F)F,14,1,270,14