T/K,P/MPa,TC/W m-1 K-1,Data type,Name,SMILES,Normalized SMILES,index,P/bar,RANDOM,IL
293.15,50.0,0.1534,Training,1-butyl-3-methylimidazolium trifluoromethanesulfonate,CCCCN1C=C[N+](=C1)C.C(F)(F)(F)S(=O)(=O)[O-],C(CCn1cc[n+](c1)C)C.FC(F)(F)S(=O)([O-])=O,6,500,132,6
293.15,60.0,0.1573,Training,1-butyl-3-methylimidazolium trifluoromethanesulfonate,CCCCN1C=C[N+](=C1)C.C(F)(F)(F)S(=O)(=O)[O-],CCCCn1cc[n+](C)c1.O=S(=O)([O-])C(F)(F)F,6,600,133,6
293.15,60.0,0.1573,Training,1-butyl-3-methylimidazolium trifluoromethanesulfonate,CCCCN1C=C[N+](=C1)C.C(F)(F)(F)S(=O)(=O)[O-],C(n1cc[n+](C)c1)CCC.S(=O)([O-])(=O)C(F)(F)F,6,600,133,6
293.15,60.0,0.1573,Training,1-butyl-3-methylimidazolium trifluoromethanesulfonate,CCCCN1C=C[N+](=C1)C.C(F)(F)(F)S(=O)(=O)[O-],[O-]S(=O)(=O)C(F)(F)F.c1n(cc[n+]1C)CCCC,6,600,133,6
293.15,60.0,0.1573,Training,1-butyl-3-methylimidazolium trifluoromethanesulfonate,CCCCN1C=C[N+](=C1)C.C(F)(F)(F)S(=O)(=O)[O-],FC(S(=O)(=O)[O-])(F)F.n1(cc[n+](C)c1)CCCC,6,600,133,6
293.15,60.0,0.1573,Training,1-butyl-3-methylimidazolium trifluoromethanesulfonate,CCCCN1C=C[N+](=C1)C.C(F)(F)(F)S(=O)(=O)[O-],C(CCn1cc[n+](C)c1)C.O=S([O-])(C(F)(F)F)=O,6,600,133,6
293.15,60.0,0.1573,Training,1-butyl-3-methylimidazolium trifluoromethanesulfonate,CCCCN1C=C[N+](=C1)C.C(F)(F)(F)S(=O)(=O)[O-],[O-]S(=O)(C(F)(F)F)=O.[n+]1(C)cn(cc1)CCCC,6,600,133,6
293.15,60.0,0.1573,Training,1-butyl-3-methylimidazolium trifluoromethanesulfonate,CCCCN1C=C[N+](=C1)C.C(F)(F)(F)S(=O)(=O)[O-],FC(S(=O)(=O)[O-])(F)F.c1[n+](ccn1CCCC)C,6,600,133,6
293.15,60.0,0.1573,Training,1-butyl-3-methylimidazolium trifluoromethanesulfonate,CCCCN1C=C[N+](=C1)C.C(F)(F)(F)S(=O)(=O)[O-],C(n1c[n+](C)cc1)CCC.O=S(=O)(C(F)(F)F)[O-],6,600,133,6
293.15,60.0,0.1573,Training,1-butyl-3-methylimidazolium trifluoromethanesulfonate,CCCCN1C=C[N+](=C1)C.C(F)(F)(F)S(=O)(=O)[O-],C(C)CCn1cc[n+](C)c1.FC(F)(F)S(=O)([O-])=O,6,600,133,6
293.15,60.0,0.1573,Training,1-butyl-3-methylimidazolium trifluoromethanesulfonate,CCCCN1C=C[N+](=C1)C.C(F)(F)(F)S(=O)(=O)[O-],C(C)CCn1c[n+](cc1)C.C(F)(F)(S([O-])(=O)=O)F,6,600,133,6
293.15,65.0,0.1559,Testing,1-butyl-3-methylimidazolium trifluoromethanesulfonate,CCCCN1C=C[N+](=C1)C.C(F)(F)(F)S(=O)(=O)[O-],CCCCn1cc[n+](C)c1.O=S(=O)([O-])C(F)(F)F,6,650,134,6
293.15,65.0,0.1559,Testing,1-butyl-3-methylimidazolium trifluoromethanesulfonate,CCCCN1C=C[N+](=C1)C.C(F)(F)(F)S(=O)(=O)[O-],FC(F)(S(=O)(=O)[O-])F.c1[n+](cn(c1)CCCC)C,6,650,134,6
293.15,65.0,0.1559,Testing,1-butyl-3-methylimidazolium trifluoromethanesulfonate,CCCCN1C=C[N+](=C1)C.C(F)(F)(F)S(=O)(=O)[O-],FC(S(=O)([O-])=O)(F)F.c1[n+](C)cn(c1)CCCC,6,650,134,6
293.15,65.0,0.1559,Testing,1-butyl-3-methylimidazolium trifluoromethanesulfonate,CCCCN1C=C[N+](=C1)C.C(F)(F)(F)S(=O)(=O)[O-],FC(F)(F)S(=O)([O-])=O.c1n(c[n+](c1)C)CCCC,6,650,134,6
293.15,65.0,0.1559,Testing,1-butyl-3-methylimidazolium trifluoromethanesulfonate,CCCCN1C=C[N+](=C1)C.C(F)(F)(F)S(=O)(=O)[O-],C(F)(F)(F)S(=O)([O-])=O.n1(CCCC)cc[n+](C)c1,6,650,134,6
293.15,65.0,0.1559,Testing,1-butyl-3-methylimidazolium trifluoromethanesulfonate,CCCCN1C=C[N+](=C1)C.C(F)(F)(F)S(=O)(=O)[O-],S([O-])(=O)(C(F)(F)F)=O.c1n(CCCC)cc[n+]1C,6,650,134,6
293.15,65.0,0.1559,Testing,1-butyl-3-methylimidazolium trifluoromethanesulfonate,CCCCN1C=C[N+](=C1)C.C(F)(F)(F)S(=O)(=O)[O-],C[n+]1ccn(c1)CCCC.FC(F)(F)S(=O)(=O)[O-],6,650,134,6
293.15,65.0,0.1559,Testing,1-butyl-3-methylimidazolium trifluoromethanesulfonate,CCCCN1C=C[N+](=C1)C.C(F)(F)(F)S(=O)(=O)[O-],S(=O)(C(F)(F)F)(=O)[O-].c1[n+](C)ccn1CCCC,6,650,134,6
293.15,65.0,0.1559,Testing,1-butyl-3-methylimidazolium trifluoromethanesulfonate,CCCCN1C=C[N+](=C1)C.C(F)(F)(F)S(=O)(=O)[O-],S(C(F)(F)F)([O-])(=O)=O.c1n(c[n+](c1)C)CCCC,6,650,134,6
293.15,65.0,0.1559,Testing,1-butyl-3-methylimidazolium trifluoromethanesulfonate,CCCCN1C=C[N+](=C1)C.C(F)(F)(F)S(=O)(=O)[O-],C(CCC)n1cc[n+](C)c1.FC(F)(S(=O)([O-])=O)F,6,650,134,6
303.15,0.1,0.1396,Training,1-butyl-3-methylimidazolium trifluoromethanesulfonate,CCCCN1C=C[N+](=C1)C.C(F)(F)(F)S(=O)(=O)[O-],CCCCn1cc[n+](C)c1.O=S(=O)([O-])C(F)(F)F,6,1,135,6
303.15,0.1,0.1396,Training,1-butyl-3-methylimidazolium trifluoromethanesulfonate,CCCCN1C=C[N+](=C1)C.C(F)(F)(F)S(=O)(=O)[O-],[O-]S(=O)(=O)C(F)(F)F.c1[n+](C)cn(CCCC)c1,6,1,135,6
303.15,0.1,0.1396,Training,1-butyl-3-methylimidazolium trifluoromethanesulfonate,CCCCN1C=C[N+](=C1)C.C(F)(F)(F)S(=O)(=O)[O-],C(F)(F)(S(=O)(=O)[O-])F.[n+]1(C)ccn(CCCC)c1,6,1,135,6
303.15,0.1,0.1396,Training,1-butyl-3-methylimidazolium trifluoromethanesulfonate,CCCCN1C=C[N+](=C1)C.C(F)(F)(F)S(=O)(=O)[O-],O=S(=O)([O-])C(F)(F)F.[n+]1(ccn(c1)CCCC)C,6,1,135,6
303.15,0.1,0.1396,Training,1-butyl-3-methylimidazolium trifluoromethanesulfonate,CCCCN1C=C[N+](=C1)C.C(F)(F)(F)S(=O)(=O)[O-],C(F)(F)(F)S(=O)([O-])=O.c1n(CCCC)c[n+](C)c1,6,1,135,6
303.15,0.1,0.1396,Training,1-butyl-3-methylimidazolium trifluoromethanesulfonate,CCCCN1C=C[N+](=C1)C.C(F)(F)(F)S(=O)(=O)[O-],CCCCn1c[n+](C)cc1.S([O-])(=O)(C(F)(F)F)=O,6,1,135,6
303.15,0.1,0.1396,Training,1-butyl-3-methylimidazolium trifluoromethanesulfonate,CCCCN1C=C[N+](=C1)C.C(F)(F)(F)S(=O)(=O)[O-],FC(S([O-])(=O)=O)(F)F.[n+]1(cn(cc1)CCCC)C,6,1,135,6
303.15,0.1,0.1396,Training,1-butyl-3-methylimidazolium trifluoromethanesulfonate,CCCCN1C=C[N+](=C1)C.C(F)(F)(F)S(=O)(=O)[O-],C(F)(F)(F)S(=O)(=O)[O-].CCCCn1cc[n+](C)c1,6,1,135,6
303.15,0.1,0.1396,Training,1-butyl-3-methylimidazolium trifluoromethanesulfonate,CCCCN1C=C[N+](=C1)C.C(F)(F)(F)S(=O)(=O)[O-],S([O-])(=O)(=O)C(F)(F)F.c1[n+](C)ccn1CCCC,6,1,135,6
303.15,0.1,0.1396,Training,1-butyl-3-methylimidazolium trifluoromethanesulfonate,CCCCN1C=C[N+](=C1)C.C(F)(F)(F)S(=O)(=O)[O-],CCCCn1cc[n+](c1)C.FC(S(=O)([O-])=O)(F)F,6,1,135,6
303.15,5.0,0.1418,Training,1-butyl-3-methylimidazolium trifluoromethanesulfonate,CCCCN1C=C[N+](=C1)C.C(F)(F)(F)S(=O)(=O)[O-],CCCCn1cc[n+](C)c1.O=S(=O)([O-])C(F)(F)F,6,50,136,6
303.15,5.0,0.1418,Training,1-butyl-3-methylimidazolium trifluoromethanesulfonate,CCCCN1C=C[N+](=C1)C.C(F)(F)(F)S(=O)(=O)[O-],CCCCn1cc[n+](C)c1.O=S([O-])(C(F)(F)F)=O,6,50,136,6
303.15,5.0,0.1418,Training,1-butyl-3-methylimidazolium trifluoromethanesulfonate,CCCCN1C=C[N+](=C1)C.C(F)(F)(F)S(=O)(=O)[O-],FC(F)(F)S([O-])(=O)=O.[n+]1(C)cn(cc1)CCCC,6,50,136,6
303.15,5.0,0.1418,Training,1-butyl-3-methylimidazolium trifluoromethanesulfonate,CCCCN1C=C[N+](=C1)C.C(F)(F)(F)S(=O)(=O)[O-],C(Cn1cc[n+](C)c1)CC.FC(S(=O)([O-])=O)(F)F,6,50,136,6
303.15,5.0,0.1418,Training,1-butyl-3-methylimidazolium trifluoromethanesulfonate,CCCCN1C=C[N+](=C1)C.C(F)(F)(F)S(=O)(=O)[O-],C(C)CCn1cc[n+](C)c1.S(=O)([O-])(C(F)(F)F)=O,6,50,136,6
303.15,5.0,0.1418,Training,1-butyl-3-methylimidazolium trifluoromethanesulfonate,CCCCN1C=C[N+](=C1)C.C(F)(F)(F)S(=O)(=O)[O-],FC(S(=O)([O-])=O)(F)F.n1(CCCC)c[n+](C)cc1,6,50,136,6
303.15,5.0,0.1418,Training,1-butyl-3-methylimidazolium trifluoromethanesulfonate,CCCCN1C=C[N+](=C1)C.C(F)(F)(F)S(=O)(=O)[O-],S(=O)(C(F)(F)F)([O-])=O.c1n(c[n+](C)c1)CCCC,6,50,136,6
303.15,5.0,0.1418,Training,1-butyl-3-methylimidazolium trifluoromethanesulfonate,CCCCN1C=C[N+](=C1)C.C(F)(F)(F)S(=O)(=O)[O-],[O-]S(=O)(=O)C(F)(F)F.c1n(CCCC)cc[n+]1C,6,50,136,6
303.15,5.0,0.1418,Training,1-butyl-3-methylimidazolium trifluoromethanesulfonate,CCCCN1C=C[N+](=C1)C.C(F)(F)(F)S(=O)(=O)[O-],[O-]S(C(F)(F)F)(=O)=O.c1n(CCCC)cc[n+]1C,6,50,136,6
303.15,5.0,0.1418,Training,1-butyl-3-methylimidazolium trifluoromethanesulfonate,CCCCN1C=C[N+](=C1)C.C(F)(F)(F)S(=O)(=O)[O-],C[n+]1cn(CCCC)cc1.S(=O)(C(F)(F)F)([O-])=O,6,50,136,6
303.15,10.0,0.1427,Testing,1-butyl-3-methylimidazolium trifluoromethanesulfonate,CCCCN1C=C[N+](=C1)C.C(F)(F)(F)S(=O)(=O)[O-],CCCCn1cc[n+](C)c1.O=S(=O)([O-])C(F)(F)F,6,100,137,6
303.15,10.0,0.1427,Testing,1-butyl-3-methylimidazolium trifluoromethanesulfonate,CCCCN1C=C[N+](=C1)C.C(F)(F)(F)S(=O)(=O)[O-],C(C)CCn1c[n+](cc1)C.O=S([O-])(=O)C(F)(F)F,6,100,137,6
303.15,10.0,0.1427,Testing,1-butyl-3-methylimidazolium trifluoromethanesulfonate,CCCCN1C=C[N+](=C1)C.C(F)(F)(F)S(=O)(=O)[O-],CCCCn1c[n+](cc1)C.[O-]S(C(F)(F)F)(=O)=O,6,100,137,6
303.15,10.0,0.1427,Testing,1-butyl-3-methylimidazolium trifluoromethanesulfonate,CCCCN1C=C[N+](=C1)C.C(F)(F)(F)S(=O)(=O)[O-],C(CCC)n1cc[n+](C)c1.FC(S(=O)(=O)[O-])(F)F,6,100,137,6
303.15,10.0,0.1427,Testing,1-butyl-3-methylimidazolium trifluoromethanesulfonate,CCCCN1C=C[N+](=C1)C.C(F)(F)(F)S(=O)(=O)[O-],FC(F)(S(=O)(=O)[O-])F.c1[n+](C)ccn1CCCC,6,100,137,6
303.15,10.0,0.1427,Testing,1-butyl-3-methylimidazolium trifluoromethanesulfonate,CCCCN1C=C[N+](=C1)C.C(F)(F)(F)S(=O)(=O)[O-],C(CC)Cn1c[n+](cc1)C.S(=O)(C(F)(F)F)(=O)[O-],6,100,137,6
303.15,10.0,0.1427,Testing,1-butyl-3-methylimidazolium trifluoromethanesulfonate,CCCCN1C=C[N+](=C1)C.C(F)(F)(F)S(=O)(=O)[O-],C(n1cc[n+](C)c1)CCC.S(=O)(=O)([O-])C(F)(F)F,6,100,137,6
303.15,10.0,0.1427,Testing,1-butyl-3-methylimidazolium trifluoromethanesulfonate,CCCCN1C=C[N+](=C1)C.C(F)(F)(F)S(=O)(=O)[O-],CCCCn1c[n+](cc1)C.FC(F)(S(=O)(=O)[O-])F,6,100,137,6
303.15,10.0,0.1427,Testing,1-butyl-3-methylimidazolium trifluoromethanesulfonate,CCCCN1C=C[N+](=C1)C.C(F)(F)(F)S(=O)(=O)[O-],C(CC)Cn1cc[n+](c1)C.O=S([O-])(=O)C(F)(F)F,6,100,137,6
303.15,10.0,0.1427,Testing,1-butyl-3-methylimidazolium trifluoromethanesulfonate,CCCCN1C=C[N+](=C1)C.C(F)(F)(F)S(=O)(=O)[O-],C(CC)Cn1c[n+](cc1)C.O=S(=O)(C(F)(F)F)[O-],6,100,137,6
303.15,20.0,0.1469,Training,1-butyl-3-methylimidazolium trifluoromethanesulfonate,CCCCN1C=C[N+](=C1)C.C(F)(F)(F)S(=O)(=O)[O-],CCCCn1cc[n+](C)c1.O=S(=O)([O-])C(F)(F)F,6,200,138,6
303.15,20.0,0.1469,Training,1-butyl-3-methylimidazolium trifluoromethanesulfonate,CCCCN1C=C[N+](=C1)C.C(F)(F)(F)S(=O)(=O)[O-],C[n+]1cn(cc1)CCCC.FC(S([O-])(=O)=O)(F)F,6,200,138,6
303.15,20.0,0.1469,Training,1-butyl-3-methylimidazolium trifluoromethanesulfonate,CCCCN1C=C[N+](=C1)C.C(F)(F)(F)S(=O)(=O)[O-],C(CCn1c[n+](C)cc1)C.FC(F)(S([O-])(=O)=O)F,6,200,138,6
303.15,20.0,0.1469,Training,1-butyl-3-methylimidazolium trifluoromethanesulfonate,CCCCN1C=C[N+](=C1)C.C(F)(F)(F)S(=O)(=O)[O-],FC(S(=O)([O-])=O)(F)F.[n+]1(cn(cc1)CCCC)C,6,200,138,6
303.15,20.0,0.1469,Training,1-butyl-3-methylimidazolium trifluoromethanesulfonate,CCCCN1C=C[N+](=C1)C.C(F)(F)(F)S(=O)(=O)[O-],O=S([O-])(=O)C(F)(F)F.n1(CCCC)cc[n+](C)c1,6,200,138,6
303.15,20.0,0.1469,Training,1-butyl-3-methylimidazolium trifluoromethanesulfonate,CCCCN1C=C[N+](=C1)C.C(F)(F)(F)S(=O)(=O)[O-],C(CCn1c[n+](cc1)C)C.O=S(=O)([O-])C(F)(F)F,6,200,138,6
303.15,20.0,0.1469,Training,1-butyl-3-methylimidazolium trifluoromethanesulfonate,CCCCN1C=C[N+](=C1)C.C(F)(F)(F)S(=O)(=O)[O-],O=S([O-])(=O)C(F)(F)F.c1n(CCCC)cc[n+]1C,6,200,138,6
303.15,20.0,0.1469,Training,1-butyl-3-methylimidazolium trifluoromethanesulfonate,CCCCN1C=C[N+](=C1)C.C(F)(F)(F)S(=O)(=O)[O-],CCCCn1c[n+](cc1)C.O=S([O-])(C(F)(F)F)=O,6,200,138,6
303.15,20.0,0.1469,Training,1-butyl-3-methylimidazolium trifluoromethanesulfonate,CCCCN1C=C[N+](=C1)C.C(F)(F)(F)S(=O)(=O)[O-],CCCCn1c[n+](cc1)C.[O-]S(=O)(C(F)(F)F)=O,6,200,138,6
303.15,20.0,0.1469,Training,1-butyl-3-methylimidazolium trifluoromethanesulfonate,CCCCN1C=C[N+](=C1)C.C(F)(F)(F)S(=O)(=O)[O-],O=S([O-])(=O)C(F)(F)F.c1n(cc[n+]1C)CCCC,6,200,138,6
303.15,30.0,0.1498,Testing,1-butyl-3-methylimidazolium trifluoromethanesulfonate,CCCCN1C=C[N+](=C1)C.C(F)(F)(F)S(=O)(=O)[O-],CCCCn1cc[n+](C)c1.O=S(=O)([O-])C(F)(F)F,6,300,139,6
303.15,30.0,0.1498,Testing,1-butyl-3-methylimidazolium trifluoromethanesulfonate,CCCCN1C=C[N+](=C1)C.C(F)(F)(F)S(=O)(=O)[O-],FC(F)(S([O-])(=O)=O)F.c1n(CCCC)c[n+](C)c1,6,300,139,6
303.15,30.0,0.1498,Testing,1-butyl-3-methylimidazolium trifluoromethanesulfonate,CCCCN1C=C[N+](=C1)C.C(F)(F)(F)S(=O)(=O)[O-],FC(S([O-])(=O)=O)(F)F.c1c[n+](C)cn1CCCC,6,300,139,6
303.15,30.0,0.1498,Testing,1-butyl-3-methylimidazolium trifluoromethanesulfonate,CCCCN1C=C[N+](=C1)C.C(F)(F)(F)S(=O)(=O)[O-],CCCCn1cc[n+](c1)C.O=S(C(F)(F)F)(=O)[O-],6,300,139,6
303.15,30.0,0.1498,Testing,1-butyl-3-methylimidazolium trifluoromethanesulfonate,CCCCN1C=C[N+](=C1)C.C(F)(F)(F)S(=O)(=O)[O-],C[n+]1cn(cc1)CCCC.[O-]S(=O)(C(F)(F)F)=O,6,300,139,6
303.15,30.0,0.1498,Testing,1-butyl-3-methylimidazolium trifluoromethanesulfonate,CCCCN1C=C[N+](=C1)C.C(F)(F)(F)S(=O)(=O)[O-],CCCCn1c[n+](C)cc1.[O-]S(=O)(C(F)(F)F)=O,6,300,139,6
303.15,30.0,0.1498,Testing,1-butyl-3-methylimidazolium trifluoromethanesulfonate,CCCCN1C=C[N+](=C1)C.C(F)(F)(F)S(=O)(=O)[O-],O=S(C(F)(F)F)([O-])=O.c1cn(c[n+]1C)CCCC,6,300,139,6
303.15,30.0,0.1498,Testing,1-butyl-3-methylimidazolium trifluoromethanesulfonate,CCCCN1C=C[N+](=C1)C.C(F)(F)(F)S(=O)(=O)[O-],S(=O)([O-])(=O)C(F)(F)F.[n+]1(cn(CCCC)cc1)C,6,300,139,6
303.15,30.0,0.1498,Testing,1-butyl-3-methylimidazolium trifluoromethanesulfonate,CCCCN1C=C[N+](=C1)C.C(F)(F)(F)S(=O)(=O)[O-],C(n1c[n+](cc1)C)CCC.O=S(=O)([O-])C(F)(F)F,6,300,139,6
303.15,30.0,0.1498,Testing,1-butyl-3-methylimidazolium trifluoromethanesulfonate,CCCCN1C=C[N+](=C1)C.C(F)(F)(F)S(=O)(=O)[O-],C(Cn1c[n+](C)cc1)CC.O=S(=O)(C(F)(F)F)[O-],6,300,139,6
303.15,40.0,0.153,Training,1-butyl-3-methylimidazolium trifluoromethanesulfonate,CCCCN1C=C[N+](=C1)C.C(F)(F)(F)S(=O)(=O)[O-],CCCCn1cc[n+](C)c1.O=S(=O)([O-])C(F)(F)F,6,400,140,6
303.15,40.0,0.153,Training,1-butyl-3-methylimidazolium trifluoromethanesulfonate,CCCCN1C=C[N+](=C1)C.C(F)(F)(F)S(=O)(=O)[O-],O=S([O-])(C(F)(F)F)=O.c1n(CCCC)c[n+](c1)C,6,400,140,6
303.15,40.0,0.153,Training,1-butyl-3-methylimidazolium trifluoromethanesulfonate,CCCCN1C=C[N+](=C1)C.C(F)(F)(F)S(=O)(=O)[O-],FC(F)(S(=O)(=O)[O-])F.[n+]1(ccn(CCCC)c1)C,6,400,140,6
303.15,40.0,0.153,Training,1-butyl-3-methylimidazolium trifluoromethanesulfonate,CCCCN1C=C[N+](=C1)C.C(F)(F)(F)S(=O)(=O)[O-],CCCCn1c[n+](cc1)C.FC(S([O-])(=O)=O)(F)F,6,400,140,6
303.15,40.0,0.153,Training,1-butyl-3-methylimidazolium trifluoromethanesulfonate,CCCCN1C=C[N+](=C1)C.C(F)(F)(F)S(=O)(=O)[O-],S(C(F)(F)F)(=O)([O-])=O.c1n(CCCC)c[n+](C)c1,6,400,140,6
303.15,40.0,0.153,Training,1-butyl-3-methylimidazolium trifluoromethanesulfonate,CCCCN1C=C[N+](=C1)C.C(F)(F)(F)S(=O)(=O)[O-],FC(F)(S([O-])(=O)=O)F.[n+]1(ccn(c1)CCCC)C,6,400,140,6
303.15,40.0,0.153,Training,1-butyl-3-methylimidazolium trifluoromethanesulfonate,CCCCN1C=C[N+](=C1)C.C(F)(F)(F)S(=O)(=O)[O-],[O-]S(=O)(=O)C(F)(F)F.c1[n+](C)cn(c1)CCCC,6,400,140,6
303.15,40.0,0.153,Training,1-butyl-3-methylimidazolium trifluoromethanesulfonate,CCCCN1C=C[N+](=C1)C.C(F)(F)(F)S(=O)(=O)[O-],S(C(F)(F)F)(=O)([O-])=O.n1(CCCC)cc[n+](c1)C,6,400,140,6
303.15,40.0,0.153,Training,1-butyl-3-methylimidazolium trifluoromethanesulfonate,CCCCN1C=C[N+](=C1)C.C(F)(F)(F)S(=O)(=O)[O-],CCCCn1cc[n+](c1)C.O=S(=O)(C(F)(F)F)[O-],6,400,140,6
303.15,50.0,0.1534,Training,1-butyl-3-methylimidazolium trifluoromethanesulfonate,CCCCN1C=C[N+](=C1)C.C(F)(F)(F)S(=O)(=O)[O-],CCCCn1cc[n+](C)c1.O=S(=O)([O-])C(F)(F)F,6,500,141,6
303.15,50.0,0.1534,Training,1-butyl-3-methylimidazolium trifluoromethanesulfonate,CCCCN1C=C[N+](=C1)C.C(F)(F)(F)S(=O)(=O)[O-],C[n+]1cn(CCCC)cc1.FC(F)(S([O-])(=O)=O)F,6,500,141,6
303.15,50.0,0.1534,Training,1-butyl-3-methylimidazolium trifluoromethanesulfonate,CCCCN1C=C[N+](=C1)C.C(F)(F)(F)S(=O)(=O)[O-],C(C)CCn1c[n+](cc1)C.O=S([O-])(C(F)(F)F)=O,6,500,141,6
303.15,50.0,0.1534,Training,1-butyl-3-methylimidazolium trifluoromethanesulfonate,CCCCN1C=C[N+](=C1)C.C(F)(F)(F)S(=O)(=O)[O-],O=S(=O)([O-])C(F)(F)F.c1n(cc[n+]1C)CCCC,6,500,141,6
303.15,50.0,0.1534,Training,1-butyl-3-methylimidazolium trifluoromethanesulfonate,CCCCN1C=C[N+](=C1)C.C(F)(F)(F)S(=O)(=O)[O-],C(n1cc[n+](C)c1)CCC.O=S([O-])(C(F)(F)F)=O,6,500,141,6
303.15,50.0,0.1534,Training,1-butyl-3-methylimidazolium trifluoromethanesulfonate,CCCCN1C=C[N+](=C1)C.C(F)(F)(F)S(=O)(=O)[O-],C[n+]1ccn(c1)CCCC.O=S(=O)(C(F)(F)F)[O-],6,500,141,6
303.15,50.0,0.1534,Training,1-butyl-3-methylimidazolium trifluoromethanesulfonate,CCCCN1C=C[N+](=C1)C.C(F)(F)(F)S(=O)(=O)[O-],C(F)(F)(S(=O)(=O)[O-])F.CCCCn1cc[n+](C)c1,6,500,141,6
303.15,50.0,0.1534,Training,1-butyl-3-methylimidazolium trifluoromethanesulfonate,CCCCN1C=C[N+](=C1)C.C(F)(F)(F)S(=O)(=O)[O-],CCCCn1c[n+](cc1)C.[O-]S(=O)(C(F)(F)F)=O,6,500,141,6
303.15,50.0,0.1534,Training,1-butyl-3-methylimidazolium trifluoromethanesulfonate,CCCCN1C=C[N+](=C1)C.C(F)(F)(F)S(=O)(=O)[O-],C(CCn1c[n+](C)cc1)C.O=S(=O)(C(F)(F)F)[O-],6,500,141,6
303.15,50.0,0.1534,Training,1-butyl-3-methylimidazolium trifluoromethanesulfonate,CCCCN1C=C[N+](=C1)C.C(F)(F)(F)S(=O)(=O)[O-],C(C)CCn1cc[n+](c1)C.S(=O)(C(F)(F)F)(=O)[O-],6,500,141,6
303.15,60.0,0.1541,Training,1-butyl-3-methylimidazolium trifluoromethanesulfonate,CCCCN1C=C[N+](=C1)C.C(F)(F)(F)S(=O)(=O)[O-],CCCCn1cc[n+](C)c1.O=S(=O)([O-])C(F)(F)F,6,600,142,6
303.15,60.0,0.1541,Training,1-butyl-3-methylimidazolium trifluoromethanesulfonate,CCCCN1C=C[N+](=C1)C.C(F)(F)(F)S(=O)(=O)[O-],C[n+]1cn(cc1)CCCC.O=S(C(F)(F)F)([O-])=O,6,600,142,6
303.15,60.0,0.1541,Training,1-butyl-3-methylimidazolium trifluoromethanesulfonate,CCCCN1C=C[N+](=C1)C.C(F)(F)(F)S(=O)(=O)[O-],C(S(=O)(=O)[O-])(F)(F)F.n1(CCCC)c[n+](C)cc1,6,600,142,6
303.15,60.0,0.1541,Training,1-butyl-3-methylimidazolium trifluoromethanesulfonate,CCCCN1C=C[N+](=C1)C.C(F)(F)(F)S(=O)(=O)[O-],FC(F)(S(=O)([O-])=O)F.[n+]1(C)ccn(c1)CCCC,6,600,142,6
303.15,60.0,0.1541,Training,1-butyl-3-methylimidazolium trifluoromethanesulfonate,CCCCN1C=C[N+](=C1)C.C(F)(F)(F)S(=O)(=O)[O-],C[n+]1ccn(CCCC)c1.FC(S(=O)([O-])=O)(F)F,6,600,142,6
303.15,60.0,0.1541,Training,1-butyl-3-methylimidazolium trifluoromethanesulfonate,CCCCN1C=C[N+](=C1)C.C(F)(F)(F)S(=O)(=O)[O-],O=S([O-])(=O)C(F)(F)F.[n+]1(C)cn(CCCC)cc1,6,600,142,6
303.15,60.0,0.1541,Training,1-butyl-3-methylimidazolium trifluoromethanesulfonate,CCCCN1C=C[N+](=C1)C.C(F)(F)(F)S(=O)(=O)[O-],C(F)(F)(S(=O)([O-])=O)F.C[n+]1ccn(CCCC)c1,6,600,142,6
303.15,60.0,0.1541,Training,1-butyl-3-methylimidazolium trifluoromethanesulfonate,CCCCN1C=C[N+](=C1)C.C(F)(F)(F)S(=O)(=O)[O-],C(CCn1cc[n+](C)c1)C.O=S(=O)([O-])C(F)(F)F,6,600,142,6
303.15,60.0,0.1541,Training,1-butyl-3-methylimidazolium trifluoromethanesulfonate,CCCCN1C=C[N+](=C1)C.C(F)(F)(F)S(=O)(=O)[O-],C[n+]1ccn(CCCC)c1.FC(F)(F)S([O-])(=O)=O,6,600,142,6
303.15,60.0,0.1541,Training,1-butyl-3-methylimidazolium trifluoromethanesulfonate,CCCCN1C=C[N+](=C1)C.C(F)(F)(F)S(=O)(=O)[O-],S([O-])(=O)(=O)C(F)(F)F.c1cn(CCCC)c[n+]1C,6,600,142,6
303.15,65.0,0.1557,Training,1-butyl-3-methylimidazolium trifluoromethanesulfonate,CCCCN1C=C[N+](=C1)C.C(F)(F)(F)S(=O)(=O)[O-],CCCCn1cc[n+](C)c1.O=S(=O)([O-])C(F)(F)F,6,650,143,6
303.15,65.0,0.1557,Training,1-butyl-3-methylimidazolium trifluoromethanesulfonate,CCCCN1C=C[N+](=C1)C.C(F)(F)(F)S(=O)(=O)[O-],FC(S(=O)(=O)[O-])(F)F.c1[n+](cn(CCCC)c1)C,6,650,143,6
303.15,65.0,0.1557,Training,1-butyl-3-methylimidazolium trifluoromethanesulfonate,CCCCN1C=C[N+](=C1)C.C(F)(F)(F)S(=O)(=O)[O-],C(C)CCn1c[n+](C)cc1.C(S(=O)(=O)[O-])(F)(F)F,6,650,143,6
303.15,65.0,0.1557,Training,1-butyl-3-methylimidazolium trifluoromethanesulfonate,CCCCN1C=C[N+](=C1)C.C(F)(F)(F)S(=O)(=O)[O-],O=S(=O)([O-])C(F)(F)F.c1n(CCCC)cc[n+]1C,6,650,143,6
303.15,65.0,0.1557,Training,1-butyl-3-methylimidazolium trifluoromethanesulfonate,CCCCN1C=C[N+](=C1)C.C(F)(F)(F)S(=O)(=O)[O-],O=S(=O)([O-])C(F)(F)F.c1n(CCCC)c[n+](C)c1,6,650,143,6
303.15,65.0,0.1557,Training,1-butyl-3-methylimidazolium trifluoromethanesulfonate,CCCCN1C=C[N+](=C1)C.C(F)(F)(F)S(=O)(=O)[O-],FC(S(=O)([O-])=O)(F)F.c1[n+](C)cn(c1)CCCC,6,650,143,6
303.15,65.0,0.1557,Training,1-butyl-3-methylimidazolium trifluoromethanesulfonate,CCCCN1C=C[N+](=C1)C.C(F)(F)(F)S(=O)(=O)[O-],FC(F)(F)S(=O)(=O)[O-].c1n(c[n+](C)c1)CCCC,6,650,143,6
303.15,65.0,0.1557,Training,1-butyl-3-methylimidazolium trifluoromethanesulfonate,CCCCN1C=C[N+](=C1)C.C(F)(F)(F)S(=O)(=O)[O-],C(CCn1c[n+](C)cc1)C.[O-]S(=O)(=O)C(F)(F)F,6,650,143,6
303.15,65.0,0.1557,Training,1-butyl-3-methylimidazolium trifluoromethanesulfonate,CCCCN1C=C[N+](=C1)C.C(F)(F)(F)S(=O)(=O)[O-],C(CC)Cn1cc[n+](C)c1.O=S([O-])(C(F)(F)F)=O,6,650,143,6
303.15,65.0,0.1557,Training,1-butyl-3-methylimidazolium trifluoromethanesulfonate,CCCCN1C=C[N+](=C1)C.C(F)(F)(F)S(=O)(=O)[O-],C(CCC)n1cc[n+](C)c1.O=S(C(F)(F)F)(=O)[O-],6,650,143,6
313.15,0.1,0.1366,Testing,1-butyl-3-methylimidazolium trifluoromethanesulfonate,CCCCN1C=C[N+](=C1)C.C(F)(F)(F)S(=O)(=O)[O-],CCCCn1cc[n+](C)c1.O=S(=O)([O-])C(F)(F)F,6,1,144,6