T/K,P/MPa,TC/W m-1 K-1,Data type,Name,SMILES,Normalized SMILES,index,P/bar,RANDOM,IL
303.15,65.0,0.125,Testing,1-butyl-1-methyl-pyrrolidinium bis(trifluoromethylsulfonyl)imide,CCCC[N+]1(CCCC1)C.C(F)(F)(F)S(=O)(=O)[N-]S(=O)(=O)C(F)(F)F,C(C[N+]1(CCCC1)C)CC.C(F)(F)(S(=O)([N-]S(=O)(C(F)(F)F)=O)=O)F,2,650,63,2
303.15,65.0,0.125,Testing,1-butyl-1-methyl-pyrrolidinium bis(trifluoromethylsulfonyl)imide,CCCC[N+]1(CCCC1)C.C(F)(F)(F)S(=O)(=O)[N-]S(=O)(=O)C(F)(F)F,C1C[N+](CCCC)(CC1)C.O=S(=O)([N-]S(=O)(C(F)(F)F)=O)C(F)(F)F,2,650,63,2
303.15,65.0,0.125,Testing,1-butyl-1-methyl-pyrrolidinium bis(trifluoromethylsulfonyl)imide,CCCC[N+]1(CCCC1)C.C(F)(F)(F)S(=O)(=O)[N-]S(=O)(=O)C(F)(F)F,C(S(=O)([N-]S(=O)(C(F)(F)F)=O)=O)(F)(F)F.CCCC[N+]1(C)CCCC1,2,650,63,2
313.15,0.1,0.1055,Training,1-butyl-1-methyl-pyrrolidinium bis(trifluoromethylsulfonyl)imide,CCCC[N+]1(CCCC1)C.C(F)(F)(F)S(=O)(=O)[N-]S(=O)(=O)C(F)(F)F,CCCC[N+]1(C)CCCC1.O=S(=O)([N-]S(=O)(=O)C(F)(F)F)C(F)(F)F,2,1,64,2
313.15,0.1,0.1055,Training,1-butyl-1-methyl-pyrrolidinium bis(trifluoromethylsulfonyl)imide,CCCC[N+]1(CCCC1)C.C(F)(F)(F)S(=O)(=O)[N-]S(=O)(=O)C(F)(F)F,C[N+]1(CCCC)CCCC1.O=S([N-]S(C(F)(F)F)(=O)=O)(C(F)(F)F)=O,2,1,64,2
313.15,0.1,0.1055,Training,1-butyl-1-methyl-pyrrolidinium bis(trifluoromethylsulfonyl)imide,CCCC[N+]1(CCCC1)C.C(F)(F)(F)S(=O)(=O)[N-]S(=O)(=O)C(F)(F)F,C1[N+](C)(CCCC)CCC1.FC(S(=O)([N-]S(=O)(=O)C(F)(F)F)=O)(F)F,2,1,64,2
313.15,0.1,0.1055,Training,1-butyl-1-methyl-pyrrolidinium bis(trifluoromethylsulfonyl)imide,CCCC[N+]1(CCCC1)C.C(F)(F)(F)S(=O)(=O)[N-]S(=O)(=O)C(F)(F)F,S(=O)([N-]S(=O)(C(F)(F)F)=O)(=O)C(F)(F)F.[N+]1(CCCC1)(C)CCCC,2,1,64,2
313.15,0.1,0.1055,Training,1-butyl-1-methyl-pyrrolidinium bis(trifluoromethylsulfonyl)imide,CCCC[N+]1(CCCC1)C.C(F)(F)(F)S(=O)(=O)[N-]S(=O)(=O)C(F)(F)F,C1CCC[N+]1(C)CCCC.FC(F)(S([N-]S(=O)(C(F)(F)F)=O)(=O)=O)F,2,1,64,2
313.15,0.1,0.1055,Training,1-butyl-1-methyl-pyrrolidinium bis(trifluoromethylsulfonyl)imide,CCCC[N+]1(CCCC1)C.C(F)(F)(F)S(=O)(=O)[N-]S(=O)(=O)C(F)(F)F,C(C)CC[N+]1(C)CCCC1.O=S(C(F)(F)F)(=O)[N-]S(=O)(C(F)(F)F)=O,2,1,64,2
313.15,0.1,0.1055,Training,1-butyl-1-methyl-pyrrolidinium bis(trifluoromethylsulfonyl)imide,CCCC[N+]1(CCCC1)C.C(F)(F)(F)S(=O)(=O)[N-]S(=O)(=O)C(F)(F)F,C(F)(F)(F)S(=O)([N-]S(=O)(C(F)(F)F)=O)=O.CCCC[N+]1(C)CCCC1,2,1,64,2
313.15,0.1,0.1055,Training,1-butyl-1-methyl-pyrrolidinium bis(trifluoromethylsulfonyl)imide,CCCC[N+]1(CCCC1)C.C(F)(F)(F)S(=O)(=O)[N-]S(=O)(=O)C(F)(F)F,C1C[N+](CCCC)(C)CC1.FC(F)(F)S(=O)([N-]S(=O)(=O)C(F)(F)F)=O,2,1,64,2
313.15,0.1,0.1055,Training,1-butyl-1-methyl-pyrrolidinium bis(trifluoromethylsulfonyl)imide,CCCC[N+]1(CCCC1)C.C(F)(F)(F)S(=O)(=O)[N-]S(=O)(=O)C(F)(F)F,C(CC)C[N+]1(C)CCCC1.O=S(=O)(C(F)(F)F)[N-]S(=O)(=O)C(F)(F)F,2,1,64,2
313.15,0.1,0.1055,Training,1-butyl-1-methyl-pyrrolidinium bis(trifluoromethylsulfonyl)imide,CCCC[N+]1(CCCC1)C.C(F)(F)(F)S(=O)(=O)[N-]S(=O)(=O)C(F)(F)F,C1CCC[N+]1(CCCC)C.FC(F)(F)S(=O)([N-]S(=O)(C(F)(F)F)=O)=O,2,1,64,2
313.15,5.0,0.1092,Training,1-butyl-1-methyl-pyrrolidinium bis(trifluoromethylsulfonyl)imide,CCCC[N+]1(CCCC1)C.C(F)(F)(F)S(=O)(=O)[N-]S(=O)(=O)C(F)(F)F,CCCC[N+]1(C)CCCC1.O=S(=O)([N-]S(=O)(=O)C(F)(F)F)C(F)(F)F,2,50,65,2
313.15,5.0,0.1092,Training,1-butyl-1-methyl-pyrrolidinium bis(trifluoromethylsulfonyl)imide,CCCC[N+]1(CCCC1)C.C(F)(F)(F)S(=O)(=O)[N-]S(=O)(=O)C(F)(F)F,C(C)CC[N+]1(CCCC1)C.FC(F)(F)S(=O)(=O)[N-]S(=O)(C(F)(F)F)=O,2,50,65,2
313.15,5.0,0.1092,Training,1-butyl-1-methyl-pyrrolidinium bis(trifluoromethylsulfonyl)imide,CCCC[N+]1(CCCC1)C.C(F)(F)(F)S(=O)(=O)[N-]S(=O)(=O)C(F)(F)F,C(F)(F)(F)S(=O)([N-]S(=O)(C(F)(F)F)=O)=O.C1CCC[N+]1(CCCC)C,2,50,65,2
313.15,5.0,0.1092,Training,1-butyl-1-methyl-pyrrolidinium bis(trifluoromethylsulfonyl)imide,CCCC[N+]1(CCCC1)C.C(F)(F)(F)S(=O)(=O)[N-]S(=O)(=O)C(F)(F)F,C1CC[N+](C)(C1)CCCC.O=S(=O)([N-]S(=O)(=O)C(F)(F)F)C(F)(F)F,2,50,65,2
313.15,5.0,0.1092,Training,1-butyl-1-methyl-pyrrolidinium bis(trifluoromethylsulfonyl)imide,CCCC[N+]1(CCCC1)C.C(F)(F)(F)S(=O)(=O)[N-]S(=O)(=O)C(F)(F)F,CCCC[N+]1(C)CCCC1.O=S([N-]S(C(F)(F)F)(=O)=O)(=O)C(F)(F)F,2,50,65,2
313.15,5.0,0.1092,Training,1-butyl-1-methyl-pyrrolidinium bis(trifluoromethylsulfonyl)imide,CCCC[N+]1(CCCC1)C.C(F)(F)(F)S(=O)(=O)[N-]S(=O)(=O)C(F)(F)F,C[N+]1(CCCC1)CCCC.FC(F)(S(=O)([N-]S(=O)(C(F)(F)F)=O)=O)F,2,50,65,2
313.15,5.0,0.1092,Training,1-butyl-1-methyl-pyrrolidinium bis(trifluoromethylsulfonyl)imide,CCCC[N+]1(CCCC1)C.C(F)(F)(F)S(=O)(=O)[N-]S(=O)(=O)C(F)(F)F,C(F)(S(=O)([N-]S(=O)(=O)C(F)(F)F)=O)(F)F.C[N+]1(CCCC1)CCCC,2,50,65,2
313.15,5.0,0.1092,Training,1-butyl-1-methyl-pyrrolidinium bis(trifluoromethylsulfonyl)imide,CCCC[N+]1(CCCC1)C.C(F)(F)(F)S(=O)(=O)[N-]S(=O)(=O)C(F)(F)F,C1CCC[N+]1(CCCC)C.S(=O)(C(F)(F)F)([N-]S(=O)(C(F)(F)F)=O)=O,2,50,65,2
313.15,5.0,0.1092,Training,1-butyl-1-methyl-pyrrolidinium bis(trifluoromethylsulfonyl)imide,CCCC[N+]1(CCCC1)C.C(F)(F)(F)S(=O)(=O)[N-]S(=O)(=O)C(F)(F)F,C(C[N+]1(C)CCCC1)CC.O=S(C(F)(F)F)(=O)[N-]S(=O)(C(F)(F)F)=O,2,50,65,2
313.15,5.0,0.1092,Training,1-butyl-1-methyl-pyrrolidinium bis(trifluoromethylsulfonyl)imide,CCCC[N+]1(CCCC1)C.C(F)(F)(F)S(=O)(=O)[N-]S(=O)(=O)C(F)(F)F,C[N+]1(CCCC1)CCCC.FC(F)(S(=O)([N-]S(=O)(=O)C(F)(F)F)=O)F,2,50,65,2
313.15,10.0,0.1131,Training,1-butyl-1-methyl-pyrrolidinium bis(trifluoromethylsulfonyl)imide,CCCC[N+]1(CCCC1)C.C(F)(F)(F)S(=O)(=O)[N-]S(=O)(=O)C(F)(F)F,CCCC[N+]1(C)CCCC1.O=S(=O)([N-]S(=O)(=O)C(F)(F)F)C(F)(F)F,2,100,66,2
313.15,10.0,0.1131,Training,1-butyl-1-methyl-pyrrolidinium bis(trifluoromethylsulfonyl)imide,CCCC[N+]1(CCCC1)C.C(F)(F)(F)S(=O)(=O)[N-]S(=O)(=O)C(F)(F)F,C(F)(F)(S([N-]S(=O)(C(F)(F)F)=O)(=O)=O)F.C1[N+](CCC1)(C)CCCC,2,100,66,2
313.15,10.0,0.1131,Training,1-butyl-1-methyl-pyrrolidinium bis(trifluoromethylsulfonyl)imide,CCCC[N+]1(CCCC1)C.C(F)(F)(F)S(=O)(=O)[N-]S(=O)(=O)C(F)(F)F,C[N+]1(CCCC)CCCC1.S([N-]S(C(F)(F)F)(=O)=O)(=O)(C(F)(F)F)=O,2,100,66,2
313.15,10.0,0.1131,Training,1-butyl-1-methyl-pyrrolidinium bis(trifluoromethylsulfonyl)imide,CCCC[N+]1(CCCC1)C.C(F)(F)(F)S(=O)(=O)[N-]S(=O)(=O)C(F)(F)F,C(CC)C[N+]1(C)CCCC1.FC(F)(F)S([N-]S(=O)(=O)C(F)(F)F)(=O)=O,2,100,66,2
313.15,10.0,0.1131,Training,1-butyl-1-methyl-pyrrolidinium bis(trifluoromethylsulfonyl)imide,CCCC[N+]1(CCCC1)C.C(F)(F)(F)S(=O)(=O)[N-]S(=O)(=O)C(F)(F)F,C(F)(F)(F)S(=O)(=O)[N-]S(=O)(=O)C(F)(F)F.C1CC[N+](C)(CCCC)C1,2,100,66,2
313.15,10.0,0.1131,Training,1-butyl-1-methyl-pyrrolidinium bis(trifluoromethylsulfonyl)imide,CCCC[N+]1(CCCC1)C.C(F)(F)(F)S(=O)(=O)[N-]S(=O)(=O)C(F)(F)F,C1CCC[N+]1(C)CCCC.FC(F)(S([N-]S(C(F)(F)F)(=O)=O)(=O)=O)F,2,100,66,2
313.15,10.0,0.1131,Training,1-butyl-1-methyl-pyrrolidinium bis(trifluoromethylsulfonyl)imide,CCCC[N+]1(CCCC1)C.C(F)(F)(F)S(=O)(=O)[N-]S(=O)(=O)C(F)(F)F,C1[N+](CCCC)(C)CCC1.FC(F)(S(=O)([N-]S(C(F)(F)F)(=O)=O)=O)F,2,100,66,2
313.15,10.0,0.1131,Training,1-butyl-1-methyl-pyrrolidinium bis(trifluoromethylsulfonyl)imide,CCCC[N+]1(CCCC1)C.C(F)(F)(F)S(=O)(=O)[N-]S(=O)(=O)C(F)(F)F,C(CCC)[N+]1(C)CCCC1.FC(S(=O)([N-]S(=O)(C(F)(F)F)=O)=O)(F)F,2,100,66,2
313.15,10.0,0.1131,Training,1-butyl-1-methyl-pyrrolidinium bis(trifluoromethylsulfonyl)imide,CCCC[N+]1(CCCC1)C.C(F)(F)(F)S(=O)(=O)[N-]S(=O)(=O)C(F)(F)F,C1CCC[N+]1(C)CCCC.O=S([N-]S(=O)(C(F)(F)F)=O)(C(F)(F)F)=O,2,100,66,2
313.15,10.0,0.1131,Training,1-butyl-1-methyl-pyrrolidinium bis(trifluoromethylsulfonyl)imide,CCCC[N+]1(CCCC1)C.C(F)(F)(F)S(=O)(=O)[N-]S(=O)(=O)C(F)(F)F,C(C[N+]1(CCCC1)C)CC.O=S(C(F)(F)F)(=O)[N-]S(=O)(C(F)(F)F)=O,2,100,66,2
313.15,20.0,0.1167,Testing,1-butyl-1-methyl-pyrrolidinium bis(trifluoromethylsulfonyl)imide,CCCC[N+]1(CCCC1)C.C(F)(F)(F)S(=O)(=O)[N-]S(=O)(=O)C(F)(F)F,CCCC[N+]1(C)CCCC1.O=S(=O)([N-]S(=O)(=O)C(F)(F)F)C(F)(F)F,2,200,67,2
313.15,20.0,0.1167,Testing,1-butyl-1-methyl-pyrrolidinium bis(trifluoromethylsulfonyl)imide,CCCC[N+]1(CCCC1)C.C(F)(F)(F)S(=O)(=O)[N-]S(=O)(=O)C(F)(F)F,C1CCC[N+]1(C)CCCC.[N-](S(=O)(=O)C(F)(F)F)S(=O)(=O)C(F)(F)F,2,200,67,2
313.15,20.0,0.1167,Testing,1-butyl-1-methyl-pyrrolidinium bis(trifluoromethylsulfonyl)imide,CCCC[N+]1(CCCC1)C.C(F)(F)(F)S(=O)(=O)[N-]S(=O)(=O)C(F)(F)F,C1C[N+](CC1)(C)CCCC.FC(F)(S(=O)(=O)[N-]S(=O)(=O)C(F)(F)F)F,2,200,67,2
313.15,20.0,0.1167,Testing,1-butyl-1-methyl-pyrrolidinium bis(trifluoromethylsulfonyl)imide,CCCC[N+]1(CCCC1)C.C(F)(F)(F)S(=O)(=O)[N-]S(=O)(=O)C(F)(F)F,C(C)CC[N+]1(CCCC1)C.O=S(C(F)(F)F)([N-]S(=O)(=O)C(F)(F)F)=O,2,200,67,2
313.15,20.0,0.1167,Testing,1-butyl-1-methyl-pyrrolidinium bis(trifluoromethylsulfonyl)imide,CCCC[N+]1(CCCC1)C.C(F)(F)(F)S(=O)(=O)[N-]S(=O)(=O)C(F)(F)F,C1C[N+](CC1)(CCCC)C.FC(F)(F)S(=O)([N-]S(=O)(=O)C(F)(F)F)=O,2,200,67,2
313.15,20.0,0.1167,Testing,1-butyl-1-methyl-pyrrolidinium bis(trifluoromethylsulfonyl)imide,CCCC[N+]1(CCCC1)C.C(F)(F)(F)S(=O)(=O)[N-]S(=O)(=O)C(F)(F)F,C(F)(F)(S([N-]S(=O)(=O)C(F)(F)F)(=O)=O)F.C1C[N+](CC1)(C)CCCC,2,200,67,2
313.15,20.0,0.1167,Testing,1-butyl-1-methyl-pyrrolidinium bis(trifluoromethylsulfonyl)imide,CCCC[N+]1(CCCC1)C.C(F)(F)(F)S(=O)(=O)[N-]S(=O)(=O)C(F)(F)F,C(F)(F)(S(=O)([N-]S(=O)(C(F)(F)F)=O)=O)F.[N+]1(C)(CCCC)CCCC1,2,200,67,2
313.15,20.0,0.1167,Testing,1-butyl-1-methyl-pyrrolidinium bis(trifluoromethylsulfonyl)imide,CCCC[N+]1(CCCC1)C.C(F)(F)(F)S(=O)(=O)[N-]S(=O)(=O)C(F)(F)F,C1CCC[N+]1(C)CCCC.S(=O)([N-]S(C(F)(F)F)(=O)=O)(C(F)(F)F)=O,2,200,67,2
313.15,20.0,0.1167,Testing,1-butyl-1-methyl-pyrrolidinium bis(trifluoromethylsulfonyl)imide,CCCC[N+]1(CCCC1)C.C(F)(F)(F)S(=O)(=O)[N-]S(=O)(=O)C(F)(F)F,C[N+]1(CCCC1)CCCC.O=S(C(F)(F)F)([N-]S(C(F)(F)F)(=O)=O)=O,2,200,67,2
313.15,20.0,0.1167,Testing,1-butyl-1-methyl-pyrrolidinium bis(trifluoromethylsulfonyl)imide,CCCC[N+]1(CCCC1)C.C(F)(F)(F)S(=O)(=O)[N-]S(=O)(=O)C(F)(F)F,C[N+]1(CCCC)CCCC1.O=S([N-]S(=O)(=O)C(F)(F)F)(=O)C(F)(F)F,2,200,67,2
313.15,30.0,0.1182,Training,1-butyl-1-methyl-pyrrolidinium bis(trifluoromethylsulfonyl)imide,CCCC[N+]1(CCCC1)C.C(F)(F)(F)S(=O)(=O)[N-]S(=O)(=O)C(F)(F)F,CCCC[N+]1(C)CCCC1.O=S(=O)([N-]S(=O)(=O)C(F)(F)F)C(F)(F)F,2,300,68,2
313.15,30.0,0.1182,Training,1-butyl-1-methyl-pyrrolidinium bis(trifluoromethylsulfonyl)imide,CCCC[N+]1(CCCC1)C.C(F)(F)(F)S(=O)(=O)[N-]S(=O)(=O)C(F)(F)F,C([N+]1(C)CCCC1)CCC.FC(S(=O)(=O)[N-]S(=O)(C(F)(F)F)=O)(F)F,2,300,68,2
313.15,30.0,0.1182,Training,1-butyl-1-methyl-pyrrolidinium bis(trifluoromethylsulfonyl)imide,CCCC[N+]1(CCCC1)C.C(F)(F)(F)S(=O)(=O)[N-]S(=O)(=O)C(F)(F)F,C(S(=O)([N-]S(C(F)(F)F)(=O)=O)=O)(F)(F)F.C1[N+](CCCC)(C)CCC1,2,300,68,2
313.15,30.0,0.1182,Training,1-butyl-1-methyl-pyrrolidinium bis(trifluoromethylsulfonyl)imide,CCCC[N+]1(CCCC1)C.C(F)(F)(F)S(=O)(=O)[N-]S(=O)(=O)C(F)(F)F,C1CC[N+](CCCC)(C)C1.FC(F)(F)S([N-]S(=O)(=O)C(F)(F)F)(=O)=O,2,300,68,2
313.15,30.0,0.1182,Training,1-butyl-1-methyl-pyrrolidinium bis(trifluoromethylsulfonyl)imide,CCCC[N+]1(CCCC1)C.C(F)(F)(F)S(=O)(=O)[N-]S(=O)(=O)C(F)(F)F,C(CCC)[N+]1(CCCC1)C.FC(S(=O)(=O)[N-]S(C(F)(F)F)(=O)=O)(F)F,2,300,68,2
313.15,30.0,0.1182,Training,1-butyl-1-methyl-pyrrolidinium bis(trifluoromethylsulfonyl)imide,CCCC[N+]1(CCCC1)C.C(F)(F)(F)S(=O)(=O)[N-]S(=O)(=O)C(F)(F)F,C1CCC[N+]1(CCCC)C.FC(F)(F)S(=O)([N-]S(=O)(=O)C(F)(F)F)=O,2,300,68,2
313.15,30.0,0.1182,Training,1-butyl-1-methyl-pyrrolidinium bis(trifluoromethylsulfonyl)imide,CCCC[N+]1(CCCC1)C.C(F)(F)(F)S(=O)(=O)[N-]S(=O)(=O)C(F)(F)F,C1CCC[N+]1(C)CCCC.O=S([N-]S(=O)(=O)C(F)(F)F)(C(F)(F)F)=O,2,300,68,2
313.15,30.0,0.1182,Training,1-butyl-1-methyl-pyrrolidinium bis(trifluoromethylsulfonyl)imide,CCCC[N+]1(CCCC1)C.C(F)(F)(F)S(=O)(=O)[N-]S(=O)(=O)C(F)(F)F,C(CC[N+]1(C)CCCC1)C.FC(F)(S(=O)(=O)[N-]S(=O)(=O)C(F)(F)F)F,2,300,68,2
313.15,30.0,0.1182,Training,1-butyl-1-methyl-pyrrolidinium bis(trifluoromethylsulfonyl)imide,CCCC[N+]1(CCCC1)C.C(F)(F)(F)S(=O)(=O)[N-]S(=O)(=O)C(F)(F)F,C(S(=O)(=O)[N-]S(=O)(C(F)(F)F)=O)(F)(F)F.C1CC[N+](C1)(CCCC)C,2,300,68,2
313.15,30.0,0.1182,Training,1-butyl-1-methyl-pyrrolidinium bis(trifluoromethylsulfonyl)imide,CCCC[N+]1(CCCC1)C.C(F)(F)(F)S(=O)(=O)[N-]S(=O)(=O)C(F)(F)F,C1[N+](CCC1)(C)CCCC.FC(S(=O)(=O)[N-]S(C(F)(F)F)(=O)=O)(F)F,2,300,68,2
313.15,40.0,0.1218,Training,1-butyl-1-methyl-pyrrolidinium bis(trifluoromethylsulfonyl)imide,CCCC[N+]1(CCCC1)C.C(F)(F)(F)S(=O)(=O)[N-]S(=O)(=O)C(F)(F)F,CCCC[N+]1(C)CCCC1.O=S(=O)([N-]S(=O)(=O)C(F)(F)F)C(F)(F)F,2,400,69,2
313.15,40.0,0.1218,Training,1-butyl-1-methyl-pyrrolidinium bis(trifluoromethylsulfonyl)imide,CCCC[N+]1(CCCC1)C.C(F)(F)(F)S(=O)(=O)[N-]S(=O)(=O)C(F)(F)F,C1[N+](C)(CCC1)CCCC.S(C(F)(F)F)(=O)(=O)[N-]S(=O)(C(F)(F)F)=O,2,400,69,2
313.15,40.0,0.1218,Training,1-butyl-1-methyl-pyrrolidinium bis(trifluoromethylsulfonyl)imide,CCCC[N+]1(CCCC1)C.C(F)(F)(F)S(=O)(=O)[N-]S(=O)(=O)C(F)(F)F,C(CCC)[N+]1(CCCC1)C.FC(F)(F)S(=O)(=O)[N-]S(=O)(C(F)(F)F)=O,2,400,69,2
313.15,40.0,0.1218,Training,1-butyl-1-methyl-pyrrolidinium bis(trifluoromethylsulfonyl)imide,CCCC[N+]1(CCCC1)C.C(F)(F)(F)S(=O)(=O)[N-]S(=O)(=O)C(F)(F)F,C(S(=O)([N-]S(=O)(C(F)(F)F)=O)=O)(F)(F)F.C1CCC[N+]1(C)CCCC,2,400,69,2
313.15,40.0,0.1218,Training,1-butyl-1-methyl-pyrrolidinium bis(trifluoromethylsulfonyl)imide,CCCC[N+]1(CCCC1)C.C(F)(F)(F)S(=O)(=O)[N-]S(=O)(=O)C(F)(F)F,C1C[N+](CCCC)(CC1)C.O=S(=O)([N-]S(=O)(=O)C(F)(F)F)C(F)(F)F,2,400,69,2
313.15,40.0,0.1218,Training,1-butyl-1-methyl-pyrrolidinium bis(trifluoromethylsulfonyl)imide,CCCC[N+]1(CCCC1)C.C(F)(F)(F)S(=O)(=O)[N-]S(=O)(=O)C(F)(F)F,C1C[N+](CC1)(C)CCCC.O=S(=O)([N-]S(=O)(=O)C(F)(F)F)C(F)(F)F,2,400,69,2
313.15,40.0,0.1218,Training,1-butyl-1-methyl-pyrrolidinium bis(trifluoromethylsulfonyl)imide,CCCC[N+]1(CCCC1)C.C(F)(F)(F)S(=O)(=O)[N-]S(=O)(=O)C(F)(F)F,C(S([N-]S(C(F)(F)F)(=O)=O)(=O)=O)(F)(F)F.C[N+]1(CCCC)CCCC1,2,400,69,2
313.15,40.0,0.1218,Training,1-butyl-1-methyl-pyrrolidinium bis(trifluoromethylsulfonyl)imide,CCCC[N+]1(CCCC1)C.C(F)(F)(F)S(=O)(=O)[N-]S(=O)(=O)C(F)(F)F,C1[N+](CCC1)(C)CCCC.O=S(=O)([N-]S(=O)(C(F)(F)F)=O)C(F)(F)F,2,400,69,2
313.15,40.0,0.1218,Training,1-butyl-1-methyl-pyrrolidinium bis(trifluoromethylsulfonyl)imide,CCCC[N+]1(CCCC1)C.C(F)(F)(F)S(=O)(=O)[N-]S(=O)(=O)C(F)(F)F,C1[N+](C)(CCCC)CCC1.FC(F)(S(=O)(=O)[N-]S(=O)(=O)C(F)(F)F)F,2,400,69,2
313.15,40.0,0.1218,Training,1-butyl-1-methyl-pyrrolidinium bis(trifluoromethylsulfonyl)imide,CCCC[N+]1(CCCC1)C.C(F)(F)(F)S(=O)(=O)[N-]S(=O)(=O)C(F)(F)F,C[N+]1(CCCC1)CCCC.O=S(C(F)(F)F)(=O)[N-]S(=O)(=O)C(F)(F)F,2,400,69,2
313.15,50.0,0.1223,Training,1-butyl-1-methyl-pyrrolidinium bis(trifluoromethylsulfonyl)imide,CCCC[N+]1(CCCC1)C.C(F)(F)(F)S(=O)(=O)[N-]S(=O)(=O)C(F)(F)F,CCCC[N+]1(C)CCCC1.O=S(=O)([N-]S(=O)(=O)C(F)(F)F)C(F)(F)F,2,500,70,2
313.15,50.0,0.1223,Training,1-butyl-1-methyl-pyrrolidinium bis(trifluoromethylsulfonyl)imide,CCCC[N+]1(CCCC1)C.C(F)(F)(F)S(=O)(=O)[N-]S(=O)(=O)C(F)(F)F,C1CCC[N+]1(CCCC)C.FC(F)(F)S([N-]S(=O)(=O)C(F)(F)F)(=O)=O,2,500,70,2
313.15,50.0,0.1223,Training,1-butyl-1-methyl-pyrrolidinium bis(trifluoromethylsulfonyl)imide,CCCC[N+]1(CCCC1)C.C(F)(F)(F)S(=O)(=O)[N-]S(=O)(=O)C(F)(F)F,C1[N+](CCCC)(CCC1)C.O=S(=O)(C(F)(F)F)[N-]S(=O)(C(F)(F)F)=O,2,500,70,2
313.15,50.0,0.1223,Training,1-butyl-1-methyl-pyrrolidinium bis(trifluoromethylsulfonyl)imide,CCCC[N+]1(CCCC1)C.C(F)(F)(F)S(=O)(=O)[N-]S(=O)(=O)C(F)(F)F,CCCC[N+]1(C)CCCC1.S(=O)(=O)(C(F)(F)F)[N-]S(=O)(C(F)(F)F)=O,2,500,70,2
313.15,50.0,0.1223,Training,1-butyl-1-methyl-pyrrolidinium bis(trifluoromethylsulfonyl)imide,CCCC[N+]1(CCCC1)C.C(F)(F)(F)S(=O)(=O)[N-]S(=O)(=O)C(F)(F)F,C(F)(S(=O)(=O)[N-]S(=O)(=O)C(F)(F)F)(F)F.C1C[N+](CC1)(CCCC)C,2,500,70,2
313.15,50.0,0.1223,Training,1-butyl-1-methyl-pyrrolidinium bis(trifluoromethylsulfonyl)imide,CCCC[N+]1(CCCC1)C.C(F)(F)(F)S(=O)(=O)[N-]S(=O)(=O)C(F)(F)F,C(S(=O)([N-]S(C(F)(F)F)(=O)=O)=O)(F)(F)F.C1CCC[N+]1(C)CCCC,2,500,70,2
313.15,50.0,0.1223,Training,1-butyl-1-methyl-pyrrolidinium bis(trifluoromethylsulfonyl)imide,CCCC[N+]1(CCCC1)C.C(F)(F)(F)S(=O)(=O)[N-]S(=O)(=O)C(F)(F)F,C([N+]1(CCCC1)C)CCC.O=S(=O)(C(F)(F)F)[N-]S(=O)(=O)C(F)(F)F,2,500,70,2
313.15,50.0,0.1223,Training,1-butyl-1-methyl-pyrrolidinium bis(trifluoromethylsulfonyl)imide,CCCC[N+]1(CCCC1)C.C(F)(F)(F)S(=O)(=O)[N-]S(=O)(=O)C(F)(F)F,C1CC[N+](CCCC)(C1)C.FC(F)(F)S(=O)(=O)[N-]S(C(F)(F)F)(=O)=O,2,500,70,2
313.15,50.0,0.1223,Training,1-butyl-1-methyl-pyrrolidinium bis(trifluoromethylsulfonyl)imide,CCCC[N+]1(CCCC1)C.C(F)(F)(F)S(=O)(=O)[N-]S(=O)(=O)C(F)(F)F,C(CCC)[N+]1(C)CCCC1.O=S(C(F)(F)F)([N-]S(=O)(C(F)(F)F)=O)=O,2,500,70,2
313.15,50.0,0.1223,Training,1-butyl-1-methyl-pyrrolidinium bis(trifluoromethylsulfonyl)imide,CCCC[N+]1(CCCC1)C.C(F)(F)(F)S(=O)(=O)[N-]S(=O)(=O)C(F)(F)F,C1CC[N+](CCCC)(C1)C.FC(F)(S(=O)([N-]S(=O)(=O)C(F)(F)F)=O)F,2,500,70,2
313.15,60.0,0.1247,Training,1-butyl-1-methyl-pyrrolidinium bis(trifluoromethylsulfonyl)imide,CCCC[N+]1(CCCC1)C.C(F)(F)(F)S(=O)(=O)[N-]S(=O)(=O)C(F)(F)F,CCCC[N+]1(C)CCCC1.O=S(=O)([N-]S(=O)(=O)C(F)(F)F)C(F)(F)F,2,600,71,2
313.15,60.0,0.1247,Training,1-butyl-1-methyl-pyrrolidinium bis(trifluoromethylsulfonyl)imide,CCCC[N+]1(CCCC1)C.C(F)(F)(F)S(=O)(=O)[N-]S(=O)(=O)C(F)(F)F,C1CCC[N+]1(CCCC)C.FC(S([N-]S(=O)(C(F)(F)F)=O)(=O)=O)(F)F,2,600,71,2
313.15,60.0,0.1247,Training,1-butyl-1-methyl-pyrrolidinium bis(trifluoromethylsulfonyl)imide,CCCC[N+]1(CCCC1)C.C(F)(F)(F)S(=O)(=O)[N-]S(=O)(=O)C(F)(F)F,C1[N+](CCC1)(CCCC)C.FC(F)(F)S(=O)([N-]S(=O)(=O)C(F)(F)F)=O,2,600,71,2
313.15,60.0,0.1247,Training,1-butyl-1-methyl-pyrrolidinium bis(trifluoromethylsulfonyl)imide,CCCC[N+]1(CCCC1)C.C(F)(F)(F)S(=O)(=O)[N-]S(=O)(=O)C(F)(F)F,C(CCC)[N+]1(CCCC1)C.S(C(F)(F)F)(=O)(=O)[N-]S(C(F)(F)F)(=O)=O,2,600,71,2
313.15,60.0,0.1247,Training,1-butyl-1-methyl-pyrrolidinium bis(trifluoromethylsulfonyl)imide,CCCC[N+]1(CCCC1)C.C(F)(F)(F)S(=O)(=O)[N-]S(=O)(=O)C(F)(F)F,C1C[N+](CCCC)(C)CC1.FC(F)(S(=O)([N-]S(=O)(=O)C(F)(F)F)=O)F,2,600,71,2
313.15,60.0,0.1247,Training,1-butyl-1-methyl-pyrrolidinium bis(trifluoromethylsulfonyl)imide,CCCC[N+]1(CCCC1)C.C(F)(F)(F)S(=O)(=O)[N-]S(=O)(=O)C(F)(F)F,C1[N+](C)(CCC1)CCCC.S(=O)(C(F)(F)F)(=O)[N-]S(C(F)(F)F)(=O)=O,2,600,71,2
313.15,60.0,0.1247,Training,1-butyl-1-methyl-pyrrolidinium bis(trifluoromethylsulfonyl)imide,CCCC[N+]1(CCCC1)C.C(F)(F)(F)S(=O)(=O)[N-]S(=O)(=O)C(F)(F)F,C1C[N+](C)(CCCC)CC1.[N-](S(C(F)(F)F)(=O)=O)S(=O)(=O)C(F)(F)F,2,600,71,2
313.15,60.0,0.1247,Training,1-butyl-1-methyl-pyrrolidinium bis(trifluoromethylsulfonyl)imide,CCCC[N+]1(CCCC1)C.C(F)(F)(F)S(=O)(=O)[N-]S(=O)(=O)C(F)(F)F,C(F)(S(=O)([N-]S(=O)(=O)C(F)(F)F)=O)(F)F.C[N+]1(CCCC1)CCCC,2,600,71,2
313.15,60.0,0.1247,Training,1-butyl-1-methyl-pyrrolidinium bis(trifluoromethylsulfonyl)imide,CCCC[N+]1(CCCC1)C.C(F)(F)(F)S(=O)(=O)[N-]S(=O)(=O)C(F)(F)F,C(CCC)[N+]1(CCCC1)C.FC(S(=O)([N-]S(=O)(C(F)(F)F)=O)=O)(F)F,2,600,71,2
313.15,60.0,0.1247,Training,1-butyl-1-methyl-pyrrolidinium bis(trifluoromethylsulfonyl)imide,CCCC[N+]1(CCCC1)C.C(F)(F)(F)S(=O)(=O)[N-]S(=O)(=O)C(F)(F)F,C1CC[N+](C1)(C)CCCC.FC(F)(F)S(=O)([N-]S(=O)(C(F)(F)F)=O)=O,2,600,71,2
313.15,65.0,0.124,Training,1-butyl-1-methyl-pyrrolidinium bis(trifluoromethylsulfonyl)imide,CCCC[N+]1(CCCC1)C.C(F)(F)(F)S(=O)(=O)[N-]S(=O)(=O)C(F)(F)F,CCCC[N+]1(C)CCCC1.O=S(=O)([N-]S(=O)(=O)C(F)(F)F)C(F)(F)F,2,650,72,2
313.15,65.0,0.124,Training,1-butyl-1-methyl-pyrrolidinium bis(trifluoromethylsulfonyl)imide,CCCC[N+]1(CCCC1)C.C(F)(F)(F)S(=O)(=O)[N-]S(=O)(=O)C(F)(F)F,C(C)CC[N+]1(C)CCCC1.C(S(=O)(=O)[N-]S(=O)(C(F)(F)F)=O)(F)(F)F,2,650,72,2
313.15,65.0,0.124,Training,1-butyl-1-methyl-pyrrolidinium bis(trifluoromethylsulfonyl)imide,CCCC[N+]1(CCCC1)C.C(F)(F)(F)S(=O)(=O)[N-]S(=O)(=O)C(F)(F)F,C1CCC[N+]1(CCCC)C.FC(F)(S(=O)([N-]S(C(F)(F)F)(=O)=O)=O)F,2,650,72,2
313.15,65.0,0.124,Training,1-butyl-1-methyl-pyrrolidinium bis(trifluoromethylsulfonyl)imide,CCCC[N+]1(CCCC1)C.C(F)(F)(F)S(=O)(=O)[N-]S(=O)(=O)C(F)(F)F,C(CC)C[N+]1(C)CCCC1.FC(F)(F)S([N-]S(=O)(C(F)(F)F)=O)(=O)=O,2,650,72,2
313.15,65.0,0.124,Training,1-butyl-1-methyl-pyrrolidinium bis(trifluoromethylsulfonyl)imide,CCCC[N+]1(CCCC1)C.C(F)(F)(F)S(=O)(=O)[N-]S(=O)(=O)C(F)(F)F,C(S(=O)(=O)[N-]S(=O)(C(F)(F)F)=O)(F)(F)F.CCCC[N+]1(C)CCCC1,2,650,72,2
313.15,65.0,0.124,Training,1-butyl-1-methyl-pyrrolidinium bis(trifluoromethylsulfonyl)imide,CCCC[N+]1(CCCC1)C.C(F)(F)(F)S(=O)(=O)[N-]S(=O)(=O)C(F)(F)F,C(CCC)[N+]1(C)CCCC1.C(S(=O)(=O)[N-]S(C(F)(F)F)(=O)=O)(F)(F)F,2,650,72,2
313.15,65.0,0.124,Training,1-butyl-1-methyl-pyrrolidinium bis(trifluoromethylsulfonyl)imide,CCCC[N+]1(CCCC1)C.C(F)(F)(F)S(=O)(=O)[N-]S(=O)(=O)C(F)(F)F,CCCC[N+]1(C)CCCC1.FC(S([N-]S(=O)(C(F)(F)F)=O)(=O)=O)(F)F,2,650,72,2