T/K,P/MPa,TC/W m-1 K-1,Data type,Name,SMILES,Normalized SMILES,index,P/bar,RANDOM,IL
313.15,5.0,0.1644,Training,1-butyl-3-methylimidazolium methylsulfate,CCCCN1C=C[N+](=C1)C.COS(=O)(=O)[O-],C(Cn1cc[n+](C)c1)CC.O=S(=O)([O-])OC,5,50,109,5
313.15,5.0,0.1644,Training,1-butyl-3-methylimidazolium methylsulfate,CCCCN1C=C[N+](=C1)C.COS(=O)(=O)[O-],CCCCn1c[n+](cc1)C.O(S(=O)(=O)[O-])C,5,50,109,5
313.15,5.0,0.1644,Training,1-butyl-3-methylimidazolium methylsulfate,CCCCN1C=C[N+](=C1)C.COS(=O)(=O)[O-],C(Cn1cc[n+](C)c1)CC.O(C)S(=O)(=O)[O-],5,50,109,5
313.15,5.0,0.1644,Training,1-butyl-3-methylimidazolium methylsulfate,CCCCN1C=C[N+](=C1)C.COS(=O)(=O)[O-],C(Cn1cc[n+](C)c1)CC.O=S([O-])(=O)OC,5,50,109,5
313.15,5.0,0.1644,Training,1-butyl-3-methylimidazolium methylsulfate,CCCCN1C=C[N+](=C1)C.COS(=O)(=O)[O-],C[n+]1cn(cc1)CCCC.[O-]S(=O)(=O)OC,5,50,109,5
313.15,5.0,0.1644,Training,1-butyl-3-methylimidazolium methylsulfate,CCCCN1C=C[N+](=C1)C.COS(=O)(=O)[O-],O=S([O-])(OC)=O.c1n(c[n+](C)c1)CCCC,5,50,109,5
313.15,10.0,0.1668,Training,1-butyl-3-methylimidazolium methylsulfate,CCCCN1C=C[N+](=C1)C.COS(=O)(=O)[O-],CCCCn1cc[n+](C)c1.COS(=O)(=O)[O-],5,100,110,5
313.15,10.0,0.1668,Training,1-butyl-3-methylimidazolium methylsulfate,CCCCN1C=C[N+](=C1)C.COS(=O)(=O)[O-],S(=O)(OC)(=O)[O-].c1[n+](C)cn(CCCC)c1,5,100,110,5
313.15,10.0,0.1668,Training,1-butyl-3-methylimidazolium methylsulfate,CCCCN1C=C[N+](=C1)C.COS(=O)(=O)[O-],S(=O)(=O)(OC)[O-].[n+]1(C)ccn(c1)CCCC,5,100,110,5
313.15,10.0,0.1668,Training,1-butyl-3-methylimidazolium methylsulfate,CCCCN1C=C[N+](=C1)C.COS(=O)(=O)[O-],COS(=O)([O-])=O.[n+]1(cn(CCCC)cc1)C,5,100,110,5
313.15,10.0,0.1668,Training,1-butyl-3-methylimidazolium methylsulfate,CCCCN1C=C[N+](=C1)C.COS(=O)(=O)[O-],S(OC)(=O)([O-])=O.[n+]1(C)cn(cc1)CCCC,5,100,110,5
313.15,10.0,0.1668,Training,1-butyl-3-methylimidazolium methylsulfate,CCCCN1C=C[N+](=C1)C.COS(=O)(=O)[O-],[O-]S(=O)(OC)=O.c1[n+](ccn1CCCC)C,5,100,110,5
313.15,10.0,0.1668,Training,1-butyl-3-methylimidazolium methylsulfate,CCCCN1C=C[N+](=C1)C.COS(=O)(=O)[O-],S([O-])(=O)(=O)OC.c1n(cc[n+]1C)CCCC,5,100,110,5
313.15,10.0,0.1668,Training,1-butyl-3-methylimidazolium methylsulfate,CCCCN1C=C[N+](=C1)C.COS(=O)(=O)[O-],C(CC)Cn1cc[n+](c1)C.O(C)S([O-])(=O)=O,5,100,110,5
313.15,10.0,0.1668,Training,1-butyl-3-methylimidazolium methylsulfate,CCCCN1C=C[N+](=C1)C.COS(=O)(=O)[O-],O=S([O-])(=O)OC.n1(CCCC)c[n+](C)cc1,5,100,110,5
313.15,10.0,0.1668,Training,1-butyl-3-methylimidazolium methylsulfate,CCCCN1C=C[N+](=C1)C.COS(=O)(=O)[O-],CCCCn1c[n+](cc1)C.O(S(=O)([O-])=O)C,5,100,110,5
313.15,20.0,0.1717,Training,1-butyl-3-methylimidazolium methylsulfate,CCCCN1C=C[N+](=C1)C.COS(=O)(=O)[O-],CCCCn1cc[n+](C)c1.COS(=O)(=O)[O-],5,200,111,5
313.15,20.0,0.1717,Training,1-butyl-3-methylimidazolium methylsulfate,CCCCN1C=C[N+](=C1)C.COS(=O)(=O)[O-],C(CCC)n1c[n+](cc1)C.O=S(OC)(=O)[O-],5,200,111,5
313.15,20.0,0.1717,Training,1-butyl-3-methylimidazolium methylsulfate,CCCCN1C=C[N+](=C1)C.COS(=O)(=O)[O-],[O-]S(=O)(=O)OC.n1(CCCC)cc[n+](C)c1,5,200,111,5
313.15,20.0,0.1717,Training,1-butyl-3-methylimidazolium methylsulfate,CCCCN1C=C[N+](=C1)C.COS(=O)(=O)[O-],C(C)CCn1c[n+](cc1)C.[O-]S(=O)(OC)=O,5,200,111,5
313.15,20.0,0.1717,Training,1-butyl-3-methylimidazolium methylsulfate,CCCCN1C=C[N+](=C1)C.COS(=O)(=O)[O-],O=S(OC)(=O)[O-].n1(cc[n+](c1)C)CCCC,5,200,111,5
313.15,20.0,0.1717,Training,1-butyl-3-methylimidazolium methylsulfate,CCCCN1C=C[N+](=C1)C.COS(=O)(=O)[O-],C(CCC)n1c[n+](cc1)C.COS([O-])(=O)=O,5,200,111,5
313.15,20.0,0.1717,Training,1-butyl-3-methylimidazolium methylsulfate,CCCCN1C=C[N+](=C1)C.COS(=O)(=O)[O-],O=S(OC)([O-])=O.[n+]1(C)cn(CCCC)cc1,5,200,111,5
313.15,20.0,0.1717,Training,1-butyl-3-methylimidazolium methylsulfate,CCCCN1C=C[N+](=C1)C.COS(=O)(=O)[O-],O=S([O-])(=O)OC.c1c[n+](cn1CCCC)C,5,200,111,5
313.15,20.0,0.1717,Training,1-butyl-3-methylimidazolium methylsulfate,CCCCN1C=C[N+](=C1)C.COS(=O)(=O)[O-],O(C)S(=O)([O-])=O.[n+]1(C)ccn(c1)CCCC,5,200,111,5
313.15,20.0,0.1717,Training,1-butyl-3-methylimidazolium methylsulfate,CCCCN1C=C[N+](=C1)C.COS(=O)(=O)[O-],COS(=O)([O-])=O.c1n(cc[n+]1C)CCCC,5,200,111,5
313.15,30.0,0.1764,Training,1-butyl-3-methylimidazolium methylsulfate,CCCCN1C=C[N+](=C1)C.COS(=O)(=O)[O-],CCCCn1cc[n+](C)c1.COS(=O)(=O)[O-],5,300,112,5
313.15,30.0,0.1764,Training,1-butyl-3-methylimidazolium methylsulfate,CCCCN1C=C[N+](=C1)C.COS(=O)(=O)[O-],COS(=O)(=O)[O-].c1n(c[n+](c1)C)CCCC,5,300,112,5
313.15,30.0,0.1764,Training,1-butyl-3-methylimidazolium methylsulfate,CCCCN1C=C[N+](=C1)C.COS(=O)(=O)[O-],C(C)CCn1cc[n+](c1)C.O=S(OC)([O-])=O,5,300,112,5
313.15,30.0,0.1764,Training,1-butyl-3-methylimidazolium methylsulfate,CCCCN1C=C[N+](=C1)C.COS(=O)(=O)[O-],CCCCn1c[n+](cc1)C.O=S(=O)(OC)[O-],5,300,112,5
313.15,30.0,0.1764,Training,1-butyl-3-methylimidazolium methylsulfate,CCCCN1C=C[N+](=C1)C.COS(=O)(=O)[O-],C[n+]1ccn(CCCC)c1.O=S(OC)(=O)[O-],5,300,112,5
313.15,30.0,0.1764,Training,1-butyl-3-methylimidazolium methylsulfate,CCCCN1C=C[N+](=C1)C.COS(=O)(=O)[O-],S([O-])(=O)(OC)=O.c1[n+](C)ccn1CCCC,5,300,112,5
313.15,30.0,0.1764,Training,1-butyl-3-methylimidazolium methylsulfate,CCCCN1C=C[N+](=C1)C.COS(=O)(=O)[O-],C[n+]1cn(cc1)CCCC.[O-]S(OC)(=O)=O,5,300,112,5
313.15,30.0,0.1764,Training,1-butyl-3-methylimidazolium methylsulfate,CCCCN1C=C[N+](=C1)C.COS(=O)(=O)[O-],C(Cn1c[n+](C)cc1)CC.O(S(=O)([O-])=O)C,5,300,112,5
313.15,30.0,0.1764,Training,1-butyl-3-methylimidazolium methylsulfate,CCCCN1C=C[N+](=C1)C.COS(=O)(=O)[O-],O=S([O-])(OC)=O.c1c[n+](C)cn1CCCC,5,300,112,5
313.15,30.0,0.1764,Training,1-butyl-3-methylimidazolium methylsulfate,CCCCN1C=C[N+](=C1)C.COS(=O)(=O)[O-],CCCCn1cc[n+](C)c1.O=S(OC)(=O)[O-],5,300,112,5
313.15,40.0,0.1764,Training,1-butyl-3-methylimidazolium methylsulfate,CCCCN1C=C[N+](=C1)C.COS(=O)(=O)[O-],CCCCn1cc[n+](C)c1.COS(=O)(=O)[O-],5,400,113,5
313.15,40.0,0.1764,Training,1-butyl-3-methylimidazolium methylsulfate,CCCCN1C=C[N+](=C1)C.COS(=O)(=O)[O-],C(CC)Cn1cc[n+](C)c1.O(C)S(=O)([O-])=O,5,400,113,5
313.15,40.0,0.1764,Training,1-butyl-3-methylimidazolium methylsulfate,CCCCN1C=C[N+](=C1)C.COS(=O)(=O)[O-],O=S(=O)([O-])OC.c1n(c[n+](c1)C)CCCC,5,400,113,5
313.15,40.0,0.1764,Training,1-butyl-3-methylimidazolium methylsulfate,CCCCN1C=C[N+](=C1)C.COS(=O)(=O)[O-],C(CCn1c[n+](cc1)C)C.O=S(OC)(=O)[O-],5,400,113,5
313.15,40.0,0.1764,Training,1-butyl-3-methylimidazolium methylsulfate,CCCCN1C=C[N+](=C1)C.COS(=O)(=O)[O-],O=S(=O)([O-])OC.n1(cc[n+](c1)C)CCCC,5,400,113,5
313.15,40.0,0.1764,Training,1-butyl-3-methylimidazolium methylsulfate,CCCCN1C=C[N+](=C1)C.COS(=O)(=O)[O-],C[n+]1ccn(CCCC)c1.O=S(OC)([O-])=O,5,400,113,5
313.15,40.0,0.1764,Training,1-butyl-3-methylimidazolium methylsulfate,CCCCN1C=C[N+](=C1)C.COS(=O)(=O)[O-],CCCCn1c[n+](cc1)C.[O-]S(OC)(=O)=O,5,400,113,5
313.15,40.0,0.1764,Training,1-butyl-3-methylimidazolium methylsulfate,CCCCN1C=C[N+](=C1)C.COS(=O)(=O)[O-],C(CCn1c[n+](cc1)C)C.COS(=O)(=O)[O-],5,400,113,5
313.15,40.0,0.1764,Training,1-butyl-3-methylimidazolium methylsulfate,CCCCN1C=C[N+](=C1)C.COS(=O)(=O)[O-],S(OC)(=O)(=O)[O-].c1cn(c[n+]1C)CCCC,5,400,113,5
313.15,40.0,0.1764,Training,1-butyl-3-methylimidazolium methylsulfate,CCCCN1C=C[N+](=C1)C.COS(=O)(=O)[O-],COS([O-])(=O)=O.c1[n+](C)ccn1CCCC,5,400,113,5
313.15,50.0,0.1787,Training,1-butyl-3-methylimidazolium methylsulfate,CCCCN1C=C[N+](=C1)C.COS(=O)(=O)[O-],CCCCn1cc[n+](C)c1.COS(=O)(=O)[O-],5,500,114,5
313.15,50.0,0.1787,Training,1-butyl-3-methylimidazolium methylsulfate,CCCCN1C=C[N+](=C1)C.COS(=O)(=O)[O-],[O-]S(OC)(=O)=O.[n+]1(C)ccn(c1)CCCC,5,500,114,5
313.15,50.0,0.1787,Training,1-butyl-3-methylimidazolium methylsulfate,CCCCN1C=C[N+](=C1)C.COS(=O)(=O)[O-],[O-]S(=O)(OC)=O.c1n(CCCC)cc[n+]1C,5,500,114,5
313.15,50.0,0.1787,Training,1-butyl-3-methylimidazolium methylsulfate,CCCCN1C=C[N+](=C1)C.COS(=O)(=O)[O-],COS([O-])(=O)=O.[n+]1(cn(cc1)CCCC)C,5,500,114,5
313.15,50.0,0.1787,Training,1-butyl-3-methylimidazolium methylsulfate,CCCCN1C=C[N+](=C1)C.COS(=O)(=O)[O-],C[n+]1cn(cc1)CCCC.O=S([O-])(=O)OC,5,500,114,5
313.15,50.0,0.1787,Training,1-butyl-3-methylimidazolium methylsulfate,CCCCN1C=C[N+](=C1)C.COS(=O)(=O)[O-],C(CC)Cn1cc[n+](c1)C.O=S(=O)(OC)[O-],5,500,114,5
313.15,50.0,0.1787,Training,1-butyl-3-methylimidazolium methylsulfate,CCCCN1C=C[N+](=C1)C.COS(=O)(=O)[O-],C(Cn1cc[n+](C)c1)CC.O(C)S(=O)([O-])=O,5,500,114,5
313.15,50.0,0.1787,Training,1-butyl-3-methylimidazolium methylsulfate,CCCCN1C=C[N+](=C1)C.COS(=O)(=O)[O-],C(n1c[n+](C)cc1)CCC.S(=O)(=O)(OC)[O-],5,500,114,5
313.15,50.0,0.1787,Training,1-butyl-3-methylimidazolium methylsulfate,CCCCN1C=C[N+](=C1)C.COS(=O)(=O)[O-],C(CC)Cn1c[n+](cc1)C.O=S(OC)([O-])=O,5,500,114,5
313.15,50.0,0.1787,Training,1-butyl-3-methylimidazolium methylsulfate,CCCCN1C=C[N+](=C1)C.COS(=O)(=O)[O-],O(S([O-])(=O)=O)C.[n+]1(C)cn(CCCC)cc1,5,500,114,5
313.15,60.0,0.1801,Training,1-butyl-3-methylimidazolium methylsulfate,CCCCN1C=C[N+](=C1)C.COS(=O)(=O)[O-],CCCCn1cc[n+](C)c1.COS(=O)(=O)[O-],5,600,115,5
313.15,60.0,0.1801,Training,1-butyl-3-methylimidazolium methylsulfate,CCCCN1C=C[N+](=C1)C.COS(=O)(=O)[O-],C(CCC)n1cc[n+](C)c1.O=S(=O)([O-])OC,5,600,115,5
313.15,60.0,0.1801,Training,1-butyl-3-methylimidazolium methylsulfate,CCCCN1C=C[N+](=C1)C.COS(=O)(=O)[O-],C(CCC)n1cc[n+](C)c1.O=S([O-])(OC)=O,5,600,115,5
313.15,60.0,0.1801,Training,1-butyl-3-methylimidazolium methylsulfate,CCCCN1C=C[N+](=C1)C.COS(=O)(=O)[O-],S(OC)(=O)([O-])=O.[n+]1(C)ccn(c1)CCCC,5,600,115,5
313.15,60.0,0.1801,Training,1-butyl-3-methylimidazolium methylsulfate,CCCCN1C=C[N+](=C1)C.COS(=O)(=O)[O-],CCCCn1c[n+](C)cc1.S(=O)([O-])(=O)OC,5,600,115,5
313.15,60.0,0.1801,Training,1-butyl-3-methylimidazolium methylsulfate,CCCCN1C=C[N+](=C1)C.COS(=O)(=O)[O-],[O-]S(OC)(=O)=O.c1[n+](C)cn(c1)CCCC,5,600,115,5
313.15,60.0,0.1801,Training,1-butyl-3-methylimidazolium methylsulfate,CCCCN1C=C[N+](=C1)C.COS(=O)(=O)[O-],S(=O)(=O)([O-])OC.c1c[n+](cn1CCCC)C,5,600,115,5
313.15,60.0,0.1801,Training,1-butyl-3-methylimidazolium methylsulfate,CCCCN1C=C[N+](=C1)C.COS(=O)(=O)[O-],COS(=O)([O-])=O.c1c[n+](cn1CCCC)C,5,600,115,5
313.15,60.0,0.1801,Training,1-butyl-3-methylimidazolium methylsulfate,CCCCN1C=C[N+](=C1)C.COS(=O)(=O)[O-],S([O-])(OC)(=O)=O.c1c[n+](C)cn1CCCC,5,600,115,5
313.15,60.0,0.1801,Training,1-butyl-3-methylimidazolium methylsulfate,CCCCN1C=C[N+](=C1)C.COS(=O)(=O)[O-],O=S(OC)([O-])=O.c1cn(c[n+]1C)CCCC,5,600,115,5
313.15,65.0,0.1812,Training,1-butyl-3-methylimidazolium methylsulfate,CCCCN1C=C[N+](=C1)C.COS(=O)(=O)[O-],CCCCn1cc[n+](C)c1.COS(=O)(=O)[O-],5,650,116,5
313.15,65.0,0.1812,Training,1-butyl-3-methylimidazolium methylsulfate,CCCCN1C=C[N+](=C1)C.COS(=O)(=O)[O-],C(CCn1cc[n+](c1)C)C.S([O-])(OC)(=O)=O,5,650,116,5
313.15,65.0,0.1812,Training,1-butyl-3-methylimidazolium methylsulfate,CCCCN1C=C[N+](=C1)C.COS(=O)(=O)[O-],CCCCn1cc[n+](c1)C.[O-]S(OC)(=O)=O,5,650,116,5
313.15,65.0,0.1812,Training,1-butyl-3-methylimidazolium methylsulfate,CCCCN1C=C[N+](=C1)C.COS(=O)(=O)[O-],O(S([O-])(=O)=O)C.c1n(c[n+](c1)C)CCCC,5,650,116,5
313.15,65.0,0.1812,Training,1-butyl-3-methylimidazolium methylsulfate,CCCCN1C=C[N+](=C1)C.COS(=O)(=O)[O-],C(C)CCn1c[n+](C)cc1.[O-]S(OC)(=O)=O,5,650,116,5
313.15,65.0,0.1812,Training,1-butyl-3-methylimidazolium methylsulfate,CCCCN1C=C[N+](=C1)C.COS(=O)(=O)[O-],O(S(=O)([O-])=O)C.n1(cc[n+](c1)C)CCCC,5,650,116,5
313.15,65.0,0.1812,Training,1-butyl-3-methylimidazolium methylsulfate,CCCCN1C=C[N+](=C1)C.COS(=O)(=O)[O-],C[n+]1ccn(CCCC)c1.[O-]S(=O)(=O)OC,5,650,116,5
313.15,65.0,0.1812,Training,1-butyl-3-methylimidazolium methylsulfate,CCCCN1C=C[N+](=C1)C.COS(=O)(=O)[O-],C(CC)Cn1cc[n+](C)c1.O=S([O-])(OC)=O,5,650,116,5
313.15,65.0,0.1812,Training,1-butyl-3-methylimidazolium methylsulfate,CCCCN1C=C[N+](=C1)C.COS(=O)(=O)[O-],CCCCn1cc[n+](c1)C.COS(=O)([O-])=O,5,650,116,5
313.15,65.0,0.1812,Training,1-butyl-3-methylimidazolium methylsulfate,CCCCN1C=C[N+](=C1)C.COS(=O)(=O)[O-],COS([O-])(=O)=O.c1c[n+](C)cn1CCCC,5,650,116,5
283.15,0.1,0.1437,Testing,1-butyl-3-methylimidazolium trifluoromethanesulfonate,CCCCN1C=C[N+](=C1)C.C(F)(F)(F)S(=O)(=O)[O-],CCCCn1cc[n+](C)c1.O=S(=O)([O-])C(F)(F)F,6,1,117,6
283.15,0.1,0.1437,Testing,1-butyl-3-methylimidazolium trifluoromethanesulfonate,CCCCN1C=C[N+](=C1)C.C(F)(F)(F)S(=O)(=O)[O-],FC(S(=O)([O-])=O)(F)F.c1n(CCCC)cc[n+]1C,6,1,117,6
283.15,0.1,0.1437,Testing,1-butyl-3-methylimidazolium trifluoromethanesulfonate,CCCCN1C=C[N+](=C1)C.C(F)(F)(F)S(=O)(=O)[O-],[O-]S(=O)(=O)C(F)(F)F.c1c[n+](C)cn1CCCC,6,1,117,6
283.15,0.1,0.1437,Testing,1-butyl-3-methylimidazolium trifluoromethanesulfonate,CCCCN1C=C[N+](=C1)C.C(F)(F)(F)S(=O)(=O)[O-],C(C)CCn1cc[n+](c1)C.O=S(C(F)(F)F)([O-])=O,6,1,117,6
283.15,0.1,0.1437,Testing,1-butyl-3-methylimidazolium trifluoromethanesulfonate,CCCCN1C=C[N+](=C1)C.C(F)(F)(F)S(=O)(=O)[O-],CCCCn1c[n+](C)cc1.S(=O)(C(F)(F)F)([O-])=O,6,1,117,6
283.15,0.1,0.1437,Testing,1-butyl-3-methylimidazolium trifluoromethanesulfonate,CCCCN1C=C[N+](=C1)C.C(F)(F)(F)S(=O)(=O)[O-],O=S([O-])(C(F)(F)F)=O.[n+]1(cn(cc1)CCCC)C,6,1,117,6
283.15,0.1,0.1437,Testing,1-butyl-3-methylimidazolium trifluoromethanesulfonate,CCCCN1C=C[N+](=C1)C.C(F)(F)(F)S(=O)(=O)[O-],C(CCC)n1cc[n+](C)c1.FC(S([O-])(=O)=O)(F)F,6,1,117,6
283.15,0.1,0.1437,Testing,1-butyl-3-methylimidazolium trifluoromethanesulfonate,CCCCN1C=C[N+](=C1)C.C(F)(F)(F)S(=O)(=O)[O-],FC(F)(F)S([O-])(=O)=O.[n+]1(ccn(c1)CCCC)C,6,1,117,6
283.15,0.1,0.1437,Testing,1-butyl-3-methylimidazolium trifluoromethanesulfonate,CCCCN1C=C[N+](=C1)C.C(F)(F)(F)S(=O)(=O)[O-],O=S([O-])(=O)C(F)(F)F.c1n(CCCC)c[n+](C)c1,6,1,117,6
283.15,5.0,0.1469,Training,1-butyl-3-methylimidazolium trifluoromethanesulfonate,CCCCN1C=C[N+](=C1)C.C(F)(F)(F)S(=O)(=O)[O-],CCCCn1cc[n+](C)c1.O=S(=O)([O-])C(F)(F)F,6,50,118,6
283.15,5.0,0.1469,Training,1-butyl-3-methylimidazolium trifluoromethanesulfonate,CCCCN1C=C[N+](=C1)C.C(F)(F)(F)S(=O)(=O)[O-],[O-]S(=O)(C(F)(F)F)=O.c1n(CCCC)c[n+](c1)C,6,50,118,6
283.15,5.0,0.1469,Training,1-butyl-3-methylimidazolium trifluoromethanesulfonate,CCCCN1C=C[N+](=C1)C.C(F)(F)(F)S(=O)(=O)[O-],C(Cn1c[n+](cc1)C)CC.[O-]S(C(F)(F)F)(=O)=O,6,50,118,6
283.15,5.0,0.1469,Training,1-butyl-3-methylimidazolium trifluoromethanesulfonate,CCCCN1C=C[N+](=C1)C.C(F)(F)(F)S(=O)(=O)[O-],C(n1cc[n+](C)c1)CCC.S(C(F)(F)F)([O-])(=O)=O,6,50,118,6
283.15,5.0,0.1469,Training,1-butyl-3-methylimidazolium trifluoromethanesulfonate,CCCCN1C=C[N+](=C1)C.C(F)(F)(F)S(=O)(=O)[O-],C(CC)Cn1c[n+](cc1)C.FC(S(=O)([O-])=O)(F)F,6,50,118,6
283.15,5.0,0.1469,Training,1-butyl-3-methylimidazolium trifluoromethanesulfonate,CCCCN1C=C[N+](=C1)C.C(F)(F)(F)S(=O)(=O)[O-],O=S([O-])(C(F)(F)F)=O.n1(CCCC)c[n+](cc1)C,6,50,118,6
283.15,5.0,0.1469,Training,1-butyl-3-methylimidazolium trifluoromethanesulfonate,CCCCN1C=C[N+](=C1)C.C(F)(F)(F)S(=O)(=O)[O-],C(CCn1cc[n+](c1)C)C.O=S([O-])(=O)C(F)(F)F,6,50,118,6
283.15,5.0,0.1469,Training,1-butyl-3-methylimidazolium trifluoromethanesulfonate,CCCCN1C=C[N+](=C1)C.C(F)(F)(F)S(=O)(=O)[O-],O=S(C(F)(F)F)([O-])=O.c1n(CCCC)cc[n+]1C,6,50,118,6
283.15,5.0,0.1469,Training,1-butyl-3-methylimidazolium trifluoromethanesulfonate,CCCCN1C=C[N+](=C1)C.C(F)(F)(F)S(=O)(=O)[O-],C(n1cc[n+](C)c1)CCC.[O-]S(C(F)(F)F)(=O)=O,6,50,118,6
283.15,5.0,0.1469,Training,1-butyl-3-methylimidazolium trifluoromethanesulfonate,CCCCN1C=C[N+](=C1)C.C(F)(F)(F)S(=O)(=O)[O-],S(=O)([O-])(C(F)(F)F)=O.[n+]1(C)cn(cc1)CCCC,6,50,118,6
283.15,10.0,0.1486,Training,1-butyl-3-methylimidazolium trifluoromethanesulfonate,CCCCN1C=C[N+](=C1)C.C(F)(F)(F)S(=O)(=O)[O-],CCCCn1cc[n+](C)c1.O=S(=O)([O-])C(F)(F)F,6,100,119,6
283.15,10.0,0.1486,Training,1-butyl-3-methylimidazolium trifluoromethanesulfonate,CCCCN1C=C[N+](=C1)C.C(F)(F)(F)S(=O)(=O)[O-],C(n1cc[n+](C)c1)CCC.[O-]S(=O)(C(F)(F)F)=O,6,100,119,6
283.15,10.0,0.1486,Training,1-butyl-3-methylimidazolium trifluoromethanesulfonate,CCCCN1C=C[N+](=C1)C.C(F)(F)(F)S(=O)(=O)[O-],C[n+]1cn(cc1)CCCC.FC(F)(S(=O)([O-])=O)F,6,100,119,6
283.15,10.0,0.1486,Training,1-butyl-3-methylimidazolium trifluoromethanesulfonate,CCCCN1C=C[N+](=C1)C.C(F)(F)(F)S(=O)(=O)[O-],FC(S([O-])(=O)=O)(F)F.[n+]1(ccn(CCCC)c1)C,6,100,119,6
283.15,10.0,0.1486,Training,1-butyl-3-methylimidazolium trifluoromethanesulfonate,CCCCN1C=C[N+](=C1)C.C(F)(F)(F)S(=O)(=O)[O-],C(F)(F)(F)S(=O)([O-])=O.CCCCn1cc[n+](C)c1,6,100,119,6
283.15,10.0,0.1486,Training,1-butyl-3-methylimidazolium trifluoromethanesulfonate,CCCCN1C=C[N+](=C1)C.C(F)(F)(F)S(=O)(=O)[O-],FC(S(=O)(=O)[O-])(F)F.c1[n+](C)ccn1CCCC,6,100,119,6
283.15,10.0,0.1486,Training,1-butyl-3-methylimidazolium trifluoromethanesulfonate,CCCCN1C=C[N+](=C1)C.C(F)(F)(F)S(=O)(=O)[O-],FC(F)(F)S(=O)([O-])=O.[n+]1(C)cn(cc1)CCCC,6,100,119,6
283.15,10.0,0.1486,Training,1-butyl-3-methylimidazolium trifluoromethanesulfonate,CCCCN1C=C[N+](=C1)C.C(F)(F)(F)S(=O)(=O)[O-],CCCCn1cc[n+](C)c1.O=S([O-])(C(F)(F)F)=O,6,100,119,6
283.15,10.0,0.1486,Training,1-butyl-3-methylimidazolium trifluoromethanesulfonate,CCCCN1C=C[N+](=C1)C.C(F)(F)(F)S(=O)(=O)[O-],C(C)CCn1c[n+](C)cc1.O=S([O-])(C(F)(F)F)=O,6,100,119,6
283.15,10.0,0.1486,Training,1-butyl-3-methylimidazolium trifluoromethanesulfonate,CCCCN1C=C[N+](=C1)C.C(F)(F)(F)S(=O)(=O)[O-],C(C)CCn1c[n+](cc1)C.[O-]S(C(F)(F)F)(=O)=O,6,100,119,6
283.15,20.0,0.1509,Training,1-butyl-3-methylimidazolium trifluoromethanesulfonate,CCCCN1C=C[N+](=C1)C.C(F)(F)(F)S(=O)(=O)[O-],CCCCn1cc[n+](C)c1.O=S(=O)([O-])C(F)(F)F,6,200,120,6
283.15,20.0,0.1509,Training,1-butyl-3-methylimidazolium trifluoromethanesulfonate,CCCCN1C=C[N+](=C1)C.C(F)(F)(F)S(=O)(=O)[O-],CCCCn1c[n+](C)cc1.O=S(=O)([O-])C(F)(F)F,6,200,120,6
283.15,20.0,0.1509,Training,1-butyl-3-methylimidazolium trifluoromethanesulfonate,CCCCN1C=C[N+](=C1)C.C(F)(F)(F)S(=O)(=O)[O-],C(n1cc[n+](C)c1)CCC.[O-]S(=O)(=O)C(F)(F)F,6,200,120,6
283.15,20.0,0.1509,Training,1-butyl-3-methylimidazolium trifluoromethanesulfonate,CCCCN1C=C[N+](=C1)C.C(F)(F)(F)S(=O)(=O)[O-],FC(F)(S(=O)(=O)[O-])F.c1n(CCCC)cc[n+]1C,6,200,120,6
283.15,20.0,0.1509,Training,1-butyl-3-methylimidazolium trifluoromethanesulfonate,CCCCN1C=C[N+](=C1)C.C(F)(F)(F)S(=O)(=O)[O-],C(F)(F)(F)S(=O)(=O)[O-].CCCCn1cc[n+](C)c1,6,200,120,6
283.15,20.0,0.1509,Training,1-butyl-3-methylimidazolium trifluoromethanesulfonate,CCCCN1C=C[N+](=C1)C.C(F)(F)(F)S(=O)(=O)[O-],C(CC)Cn1cc[n+](c1)C.FC(S(=O)([O-])=O)(F)F,6,200,120,6
283.15,20.0,0.1509,Training,1-butyl-3-methylimidazolium trifluoromethanesulfonate,CCCCN1C=C[N+](=C1)C.C(F)(F)(F)S(=O)(=O)[O-],C(CC)Cn1cc[n+](C)c1.FC(F)(S(=O)([O-])=O)F,6,200,120,6
283.15,20.0,0.1509,Training,1-butyl-3-methylimidazolium trifluoromethanesulfonate,CCCCN1C=C[N+](=C1)C.C(F)(F)(F)S(=O)(=O)[O-],C(Cn1cc[n+](c1)C)CC.[O-]S(C(F)(F)F)(=O)=O,6,200,120,6
283.15,20.0,0.1509,Training,1-butyl-3-methylimidazolium trifluoromethanesulfonate,CCCCN1C=C[N+](=C1)C.C(F)(F)(F)S(=O)(=O)[O-],CCCCn1cc[n+](C)c1.[O-]S(=O)(=O)C(F)(F)F,6,200,120,6
283.15,20.0,0.1509,Training,1-butyl-3-methylimidazolium trifluoromethanesulfonate,CCCCN1C=C[N+](=C1)C.C(F)(F)(F)S(=O)(=O)[O-],C[n+]1ccn(c1)CCCC.[O-]S(C(F)(F)F)(=O)=O,6,200,120,6
283.15,30.0,0.1512,Training,1-butyl-3-methylimidazolium trifluoromethanesulfonate,CCCCN1C=C[N+](=C1)C.C(F)(F)(F)S(=O)(=O)[O-],CCCCn1cc[n+](C)c1.O=S(=O)([O-])C(F)(F)F,6,300,121,6
283.15,30.0,0.1512,Training,1-butyl-3-methylimidazolium trifluoromethanesulfonate,CCCCN1C=C[N+](=C1)C.C(F)(F)(F)S(=O)(=O)[O-],CCCCn1c[n+](C)cc1.FC(F)(S([O-])(=O)=O)F,6,300,121,6
283.15,30.0,0.1512,Training,1-butyl-3-methylimidazolium trifluoromethanesulfonate,CCCCN1C=C[N+](=C1)C.C(F)(F)(F)S(=O)(=O)[O-],FC(S([O-])(=O)=O)(F)F.[n+]1(C)cn(CCCC)cc1,6,300,121,6
283.15,30.0,0.1512,Training,1-butyl-3-methylimidazolium trifluoromethanesulfonate,CCCCN1C=C[N+](=C1)C.C(F)(F)(F)S(=O)(=O)[O-],C(CCn1cc[n+](C)c1)C.O=S(=O)([O-])C(F)(F)F,6,300,121,6
283.15,30.0,0.1512,Training,1-butyl-3-methylimidazolium trifluoromethanesulfonate,CCCCN1C=C[N+](=C1)C.C(F)(F)(F)S(=O)(=O)[O-],O=S([O-])(=O)C(F)(F)F.c1n(c[n+](C)c1)CCCC,6,300,121,6
283.15,30.0,0.1512,Training,1-butyl-3-methylimidazolium trifluoromethanesulfonate,CCCCN1C=C[N+](=C1)C.C(F)(F)(F)S(=O)(=O)[O-],FC(F)(F)S(=O)(=O)[O-].[n+]1(C)ccn(CCCC)c1,6,300,121,6
283.15,30.0,0.1512,Training,1-butyl-3-methylimidazolium trifluoromethanesulfonate,CCCCN1C=C[N+](=C1)C.C(F)(F)(F)S(=O)(=O)[O-],C(n1c[n+](cc1)C)CCC.FC(S(=O)([O-])=O)(F)F,6,300,121,6