T/K,P/MPa,TC/W m-1 K-1,Data type,Name,SMILES,Normalized SMILES,index,P/bar,RANDOM,IL
323.15,0.1,0.1833,Training,1-ethyl-3-methylimidazolium ethylsulfate,CCN1C=C[N+](=C1)C.CCOS(=O)(=O)[O-],S([O-])(=O)(OCC)=O.c1[n+](C)ccn1CC,11,1,248,11
333.15,0.1,0.1832,Testing,1-ethyl-3-methylimidazolium ethylsulfate,CCN1C=C[N+](=C1)C.CCOS(=O)(=O)[O-],CCOS(=O)(=O)[O-].CCn1cc[n+](C)c1,11,1,249,11
333.15,0.1,0.1832,Testing,1-ethyl-3-methylimidazolium ethylsulfate,CCN1C=C[N+](=C1)C.CCOS(=O)(=O)[O-],C(OS(=O)([O-])=O)C.c1[n+](cn(c1)CC)C,11,1,249,11
333.15,0.1,0.1832,Testing,1-ethyl-3-methylimidazolium ethylsulfate,CCN1C=C[N+](=C1)C.CCOS(=O)(=O)[O-],C(C)OS([O-])(=O)=O.n1(CC)cc[n+](c1)C,11,1,249,11
333.15,0.1,0.1832,Testing,1-ethyl-3-methylimidazolium ethylsulfate,CCN1C=C[N+](=C1)C.CCOS(=O)(=O)[O-],CCOS(=O)([O-])=O.c1[n+](ccn1CC)C,11,1,249,11
333.15,0.1,0.1832,Testing,1-ethyl-3-methylimidazolium ethylsulfate,CCN1C=C[N+](=C1)C.CCOS(=O)(=O)[O-],C(n1c[n+](cc1)C)C.O=S(OCC)(=O)[O-],11,1,249,11
333.15,0.1,0.1832,Testing,1-ethyl-3-methylimidazolium ethylsulfate,CCN1C=C[N+](=C1)C.CCOS(=O)(=O)[O-],S(=O)(OCC)(=O)[O-].c1[n+](cn(CC)c1)C,11,1,249,11
333.15,0.1,0.1832,Testing,1-ethyl-3-methylimidazolium ethylsulfate,CCN1C=C[N+](=C1)C.CCOS(=O)(=O)[O-],CCn1cc[n+](C)c1.S(=O)(OCC)([O-])=O,11,1,249,11
333.15,0.1,0.1832,Testing,1-ethyl-3-methylimidazolium ethylsulfate,CCN1C=C[N+](=C1)C.CCOS(=O)(=O)[O-],O=S(=O)([O-])OCC.c1[n+](C)cn(CC)c1,11,1,249,11
333.15,0.1,0.1832,Testing,1-ethyl-3-methylimidazolium ethylsulfate,CCN1C=C[N+](=C1)C.CCOS(=O)(=O)[O-],O=S([O-])(=O)OCC.[n+]1(C)ccn(c1)CC,11,1,249,11
333.15,0.1,0.1832,Testing,1-ethyl-3-methylimidazolium ethylsulfate,CCN1C=C[N+](=C1)C.CCOS(=O)(=O)[O-],[O-]S(OCC)(=O)=O.c1n(CC)cc[n+]1C,11,1,249,11
343.15,0.1,0.1834,Training,1-ethyl-3-methylimidazolium ethylsulfate,CCN1C=C[N+](=C1)C.CCOS(=O)(=O)[O-],CCOS(=O)(=O)[O-].CCn1cc[n+](C)c1,11,1,250,11
343.15,0.1,0.1834,Training,1-ethyl-3-methylimidazolium ethylsulfate,CCN1C=C[N+](=C1)C.CCOS(=O)(=O)[O-],CCOS(=O)(=O)[O-].c1n(c[n+](c1)C)CC,11,1,250,11
343.15,0.1,0.1834,Training,1-ethyl-3-methylimidazolium ethylsulfate,CCN1C=C[N+](=C1)C.CCOS(=O)(=O)[O-],C(n1cc[n+](C)c1)C.O=S(OCC)(=O)[O-],11,1,250,11
343.15,0.1,0.1834,Training,1-ethyl-3-methylimidazolium ethylsulfate,CCN1C=C[N+](=C1)C.CCOS(=O)(=O)[O-],[O-]S(=O)(OCC)=O.c1n(cc[n+]1C)CC,11,1,250,11
343.15,0.1,0.1834,Training,1-ethyl-3-methylimidazolium ethylsulfate,CCN1C=C[N+](=C1)C.CCOS(=O)(=O)[O-],CCOS([O-])(=O)=O.n1(c[n+](C)cc1)CC,11,1,250,11
343.15,0.1,0.1834,Training,1-ethyl-3-methylimidazolium ethylsulfate,CCN1C=C[N+](=C1)C.CCOS(=O)(=O)[O-],CCOS([O-])(=O)=O.c1[n+](ccn1CC)C,11,1,250,11
343.15,0.1,0.1834,Training,1-ethyl-3-methylimidazolium ethylsulfate,CCN1C=C[N+](=C1)C.CCOS(=O)(=O)[O-],O=S(OCC)(=O)[O-].c1[n+](C)ccn1CC,11,1,250,11
343.15,0.1,0.1834,Training,1-ethyl-3-methylimidazolium ethylsulfate,CCN1C=C[N+](=C1)C.CCOS(=O)(=O)[O-],O=S([O-])(=O)OCC.[n+]1(cn(CC)cc1)C,11,1,250,11
343.15,0.1,0.1834,Training,1-ethyl-3-methylimidazolium ethylsulfate,CCN1C=C[N+](=C1)C.CCOS(=O)(=O)[O-],C(C)n1c[n+](cc1)C.O(CC)S(=O)([O-])=O,11,1,250,11
343.15,0.1,0.1834,Training,1-ethyl-3-methylimidazolium ethylsulfate,CCN1C=C[N+](=C1)C.CCOS(=O)(=O)[O-],CCOS([O-])(=O)=O.c1[n+](C)ccn1CC,11,1,250,11
353.15,0.1,0.183,Training,1-ethyl-3-methylimidazolium ethylsulfate,CCN1C=C[N+](=C1)C.CCOS(=O)(=O)[O-],CCOS(=O)(=O)[O-].CCn1cc[n+](C)c1,11,1,251,11
353.15,0.1,0.183,Training,1-ethyl-3-methylimidazolium ethylsulfate,CCN1C=C[N+](=C1)C.CCOS(=O)(=O)[O-],O=S([O-])(=O)OCC.c1n(CC)c[n+](C)c1,11,1,251,11
353.15,0.1,0.183,Training,1-ethyl-3-methylimidazolium ethylsulfate,CCN1C=C[N+](=C1)C.CCOS(=O)(=O)[O-],C(OS(=O)(=O)[O-])C.C(n1cc[n+](c1)C)C,11,1,251,11
353.15,0.1,0.183,Training,1-ethyl-3-methylimidazolium ethylsulfate,CCN1C=C[N+](=C1)C.CCOS(=O)(=O)[O-],C(C)OS([O-])(=O)=O.c1n(c[n+](c1)C)CC,11,1,251,11
353.15,0.1,0.183,Training,1-ethyl-3-methylimidazolium ethylsulfate,CCN1C=C[N+](=C1)C.CCOS(=O)(=O)[O-],C(C)OS(=O)(=O)[O-].c1[n+](cn(CC)c1)C,11,1,251,11
353.15,0.1,0.183,Training,1-ethyl-3-methylimidazolium ethylsulfate,CCN1C=C[N+](=C1)C.CCOS(=O)(=O)[O-],O=S(OCC)(=O)[O-].n1(CC)cc[n+](c1)C,11,1,251,11
353.15,0.1,0.183,Training,1-ethyl-3-methylimidazolium ethylsulfate,CCN1C=C[N+](=C1)C.CCOS(=O)(=O)[O-],[O-]S(=O)(OCC)=O.c1c[n+](cn1CC)C,11,1,251,11
353.15,0.1,0.183,Training,1-ethyl-3-methylimidazolium ethylsulfate,CCN1C=C[N+](=C1)C.CCOS(=O)(=O)[O-],C[n+]1ccn(c1)CC.[O-]S(=O)(OCC)=O,11,1,251,11
353.15,0.1,0.183,Training,1-ethyl-3-methylimidazolium ethylsulfate,CCN1C=C[N+](=C1)C.CCOS(=O)(=O)[O-],[O-]S(OCC)(=O)=O.[n+]1(ccn(c1)CC)C,11,1,251,11
353.15,0.1,0.183,Training,1-ethyl-3-methylimidazolium ethylsulfate,CCN1C=C[N+](=C1)C.CCOS(=O)(=O)[O-],[O-]S(OCC)(=O)=O.c1[n+](cn(CC)c1)C,11,1,251,11
273.15,0.1,0.1712,Training,1-ethyl-3-methylimidazolium octylsulfate,CCCCCCCCOS(=O)(=O)[O-].CCN1C=C[N+](=C1)C,CCCCCCCCOS(=O)(=O)[O-].CCn1cc[n+](C)c1,12,1,252,12
273.15,0.1,0.1712,Training,1-ethyl-3-methylimidazolium octylsulfate,CCCCCCCCOS(=O)(=O)[O-].CCN1C=C[N+](=C1)C,C(CC)CCCCCOS([O-])(=O)=O.n1(cc[n+](c1)C)CC,12,1,252,12
273.15,0.1,0.1712,Training,1-ethyl-3-methylimidazolium octylsulfate,CCCCCCCCOS(=O)(=O)[O-].CCN1C=C[N+](=C1)C,C(CCCCCCOS([O-])(=O)=O)C.n1(CC)cc[n+](C)c1,12,1,252,12
273.15,0.1,0.1712,Training,1-ethyl-3-methylimidazolium octylsulfate,CCCCCCCCOS(=O)(=O)[O-].CCN1C=C[N+](=C1)C,CCn1cc[n+](c1)C.O=S([O-])(=O)OCCCCCCCC,12,1,252,12
273.15,0.1,0.1712,Training,1-ethyl-3-methylimidazolium octylsulfate,CCCCCCCCOS(=O)(=O)[O-].CCN1C=C[N+](=C1)C,C(C)n1cc[n+](C)c1.O(CCCCCCCC)S(=O)(=O)[O-],12,1,252,12
273.15,0.1,0.1712,Training,1-ethyl-3-methylimidazolium octylsulfate,CCCCCCCCOS(=O)(=O)[O-].CCN1C=C[N+](=C1)C,C(CCCCCOS(=O)([O-])=O)CC.C[n+]1ccn(c1)CC,12,1,252,12
273.15,0.1,0.1712,Training,1-ethyl-3-methylimidazolium octylsulfate,CCCCCCCCOS(=O)(=O)[O-].CCN1C=C[N+](=C1)C,S(=O)(OCCCCCCCC)(=O)[O-].[n+]1(C)cn(cc1)CC,12,1,252,12
273.15,0.1,0.1712,Training,1-ethyl-3-methylimidazolium octylsulfate,CCCCCCCCOS(=O)(=O)[O-].CCN1C=C[N+](=C1)C,C(COS(=O)(=O)[O-])CCCCCC.c1c[n+](C)cn1CC,12,1,252,12
273.15,0.1,0.1712,Training,1-ethyl-3-methylimidazolium octylsulfate,CCCCCCCCOS(=O)(=O)[O-].CCN1C=C[N+](=C1)C,C(CCOS(=O)([O-])=O)CCCCC.c1n(CC)c[n+](c1)C,12,1,252,12
273.15,0.1,0.1712,Training,1-ethyl-3-methylimidazolium octylsulfate,CCCCCCCCOS(=O)(=O)[O-].CCN1C=C[N+](=C1)C,C(CCCCOS(=O)([O-])=O)CCC.c1c[n+](C)cn1CC,12,1,252,12
283.15,0.1,0.1711,Training,1-ethyl-3-methylimidazolium octylsulfate,CCCCCCCCOS(=O)(=O)[O-].CCN1C=C[N+](=C1)C,CCCCCCCCOS(=O)(=O)[O-].CCn1cc[n+](C)c1,12,1,253,12
283.15,0.1,0.1711,Training,1-ethyl-3-methylimidazolium octylsulfate,CCCCCCCCOS(=O)(=O)[O-].CCN1C=C[N+](=C1)C,C(COS([O-])(=O)=O)CCCCCC.CCn1c[n+](C)cc1,12,1,253,12
283.15,0.1,0.1711,Training,1-ethyl-3-methylimidazolium octylsulfate,CCCCCCCCOS(=O)(=O)[O-].CCN1C=C[N+](=C1)C,C(n1c[n+](cc1)C)C.CCCCCCCCOS(=O)([O-])=O,12,1,253,12
283.15,0.1,0.1711,Training,1-ethyl-3-methylimidazolium octylsulfate,CCCCCCCCOS(=O)(=O)[O-].CCN1C=C[N+](=C1)C,C(CCCCCC)COS([O-])(=O)=O.C[n+]1ccn(CC)c1,12,1,253,12
283.15,0.1,0.1711,Training,1-ethyl-3-methylimidazolium octylsulfate,CCCCCCCCOS(=O)(=O)[O-].CCN1C=C[N+](=C1)C,C(CCCCCCOS(=O)([O-])=O)C.c1n(cc[n+]1C)CC,12,1,253,12
283.15,0.1,0.1711,Training,1-ethyl-3-methylimidazolium octylsulfate,CCCCCCCCOS(=O)(=O)[O-].CCN1C=C[N+](=C1)C,C[n+]1ccn(c1)CC.O=S([O-])(=O)OCCCCCCCC,12,1,253,12
283.15,0.1,0.1711,Training,1-ethyl-3-methylimidazolium octylsulfate,CCCCCCCCOS(=O)(=O)[O-].CCN1C=C[N+](=C1)C,CCCCCCCCOS([O-])(=O)=O.n1(CC)c[n+](C)cc1,12,1,253,12
283.15,0.1,0.1711,Training,1-ethyl-3-methylimidazolium octylsulfate,CCCCCCCCOS(=O)(=O)[O-].CCN1C=C[N+](=C1)C,C(CCCOS(=O)(=O)[O-])CCCC.n1(CC)c[n+](cc1)C,12,1,253,12
283.15,0.1,0.1711,Training,1-ethyl-3-methylimidazolium octylsulfate,CCCCCCCCOS(=O)(=O)[O-].CCN1C=C[N+](=C1)C,O=S(=O)(OCCCCCCCC)[O-].n1(CC)c[n+](cc1)C,12,1,253,12
283.15,0.1,0.1711,Training,1-ethyl-3-methylimidazolium octylsulfate,CCCCCCCCOS(=O)(=O)[O-].CCN1C=C[N+](=C1)C,C(CCCCCOS([O-])(=O)=O)CC.n1(CC)cc[n+](c1)C,12,1,253,12
293.15,0.1,0.167,Training,1-ethyl-3-methylimidazolium octylsulfate,CCCCCCCCOS(=O)(=O)[O-].CCN1C=C[N+](=C1)C,CCCCCCCCOS(=O)(=O)[O-].CCn1cc[n+](C)c1,12,1,254,12
293.15,0.1,0.167,Training,1-ethyl-3-methylimidazolium octylsulfate,CCCCCCCCOS(=O)(=O)[O-].CCN1C=C[N+](=C1)C,C(C)n1c[n+](C)cc1.CCCCCCCCOS([O-])(=O)=O,12,1,254,12
293.15,0.1,0.167,Training,1-ethyl-3-methylimidazolium octylsulfate,CCCCCCCCOS(=O)(=O)[O-].CCN1C=C[N+](=C1)C,CCCCCCCCOS([O-])(=O)=O.C[n+]1cn(cc1)CC,12,1,254,12
293.15,0.1,0.167,Training,1-ethyl-3-methylimidazolium octylsulfate,CCCCCCCCOS(=O)(=O)[O-].CCN1C=C[N+](=C1)C,O=S(=O)([O-])OCCCCCCCC.[n+]1(C)ccn(CC)c1,12,1,254,12
293.15,0.1,0.167,Training,1-ethyl-3-methylimidazolium octylsulfate,CCCCCCCCOS(=O)(=O)[O-].CCN1C=C[N+](=C1)C,O=S(=O)(OCCCCCCCC)[O-].n1(c[n+](cc1)C)CC,12,1,254,12
293.15,0.1,0.167,Training,1-ethyl-3-methylimidazolium octylsulfate,CCCCCCCCOS(=O)(=O)[O-].CCN1C=C[N+](=C1)C,[O-]S(OCCCCCCCC)(=O)=O.n1(CC)c[n+](C)cc1,12,1,254,12
293.15,0.1,0.167,Training,1-ethyl-3-methylimidazolium octylsulfate,CCCCCCCCOS(=O)(=O)[O-].CCN1C=C[N+](=C1)C,C(CCCCC)CCOS(=O)([O-])=O.[n+]1(C)ccn(c1)CC,12,1,254,12
293.15,0.1,0.167,Training,1-ethyl-3-methylimidazolium octylsulfate,CCCCCCCCOS(=O)(=O)[O-].CCN1C=C[N+](=C1)C,C(C)n1cc[n+](c1)C.S(=O)([O-])(OCCCCCCCC)=O,12,1,254,12
293.15,0.1,0.167,Training,1-ethyl-3-methylimidazolium octylsulfate,CCCCCCCCOS(=O)(=O)[O-].CCN1C=C[N+](=C1)C,[O-]S(OCCCCCCCC)(=O)=O.c1cn(CC)c[n+]1C,12,1,254,12
293.15,0.1,0.167,Training,1-ethyl-3-methylimidazolium octylsulfate,CCCCCCCCOS(=O)(=O)[O-].CCN1C=C[N+](=C1)C,C(CCC)CCCCOS(=O)(=O)[O-].c1[n+](C)ccn1CC,12,1,254,12
303.15,0.1,0.1679,Training,1-ethyl-3-methylimidazolium octylsulfate,CCCCCCCCOS(=O)(=O)[O-].CCN1C=C[N+](=C1)C,CCCCCCCCOS(=O)(=O)[O-].CCn1cc[n+](C)c1,12,1,255,12
303.15,0.1,0.1679,Training,1-ethyl-3-methylimidazolium octylsulfate,CCCCCCCCOS(=O)(=O)[O-].CCN1C=C[N+](=C1)C,CCn1cc[n+](C)c1.[O-]S(=O)(OCCCCCCCC)=O,12,1,255,12
303.15,0.1,0.1679,Training,1-ethyl-3-methylimidazolium octylsulfate,CCCCCCCCOS(=O)(=O)[O-].CCN1C=C[N+](=C1)C,C(CCC)CCCCOS(=O)([O-])=O.n1(CC)c[n+](C)cc1,12,1,255,12
303.15,0.1,0.1679,Training,1-ethyl-3-methylimidazolium octylsulfate,CCCCCCCCOS(=O)(=O)[O-].CCN1C=C[N+](=C1)C,C(C)n1c[n+](cc1)C.C(CC)CCCCCOS(=O)(=O)[O-],12,1,255,12
303.15,0.1,0.1679,Training,1-ethyl-3-methylimidazolium octylsulfate,CCCCCCCCOS(=O)(=O)[O-].CCN1C=C[N+](=C1)C,C(CCCCCCC)OS(=O)([O-])=O.n1(CC)cc[n+](c1)C,12,1,255,12
303.15,0.1,0.1679,Training,1-ethyl-3-methylimidazolium octylsulfate,CCCCCCCCOS(=O)(=O)[O-].CCN1C=C[N+](=C1)C,CCCCCCCCOS(=O)([O-])=O.c1c[n+](C)cn1CC,12,1,255,12
303.15,0.1,0.1679,Training,1-ethyl-3-methylimidazolium octylsulfate,CCCCCCCCOS(=O)(=O)[O-].CCN1C=C[N+](=C1)C,CCn1c[n+](cc1)C.O=S([O-])(=O)OCCCCCCCC,12,1,255,12
303.15,0.1,0.1679,Training,1-ethyl-3-methylimidazolium octylsulfate,CCCCCCCCOS(=O)(=O)[O-].CCN1C=C[N+](=C1)C,C(n1c[n+](C)cc1)C.CCCCCCCCOS([O-])(=O)=O,12,1,255,12
303.15,0.1,0.1679,Training,1-ethyl-3-methylimidazolium octylsulfate,CCCCCCCCOS(=O)(=O)[O-].CCN1C=C[N+](=C1)C,O=S(=O)(OCCCCCCCC)[O-].n1(c[n+](C)cc1)CC,12,1,255,12
303.15,0.1,0.1679,Training,1-ethyl-3-methylimidazolium octylsulfate,CCCCCCCCOS(=O)(=O)[O-].CCN1C=C[N+](=C1)C,C(CCCCOS(=O)(=O)[O-])CCC.n1(c[n+](cc1)C)CC,12,1,255,12
313.15,0.1,0.1648,Testing,1-ethyl-3-methylimidazolium octylsulfate,CCCCCCCCOS(=O)(=O)[O-].CCN1C=C[N+](=C1)C,CCCCCCCCOS(=O)(=O)[O-].CCn1cc[n+](C)c1,12,1,256,12
313.15,0.1,0.1648,Testing,1-ethyl-3-methylimidazolium octylsulfate,CCCCCCCCOS(=O)(=O)[O-].CCN1C=C[N+](=C1)C,C(C)CCCCCCOS(=O)([O-])=O.c1n(cc[n+]1C)CC,12,1,256,12
313.15,0.1,0.1648,Testing,1-ethyl-3-methylimidazolium octylsulfate,CCCCCCCCOS(=O)(=O)[O-].CCN1C=C[N+](=C1)C,C(CC)CCCCCOS(=O)(=O)[O-].C(n1c[n+](C)cc1)C,12,1,256,12
313.15,0.1,0.1648,Testing,1-ethyl-3-methylimidazolium octylsulfate,CCCCCCCCOS(=O)(=O)[O-].CCN1C=C[N+](=C1)C,C(n1c[n+](C)cc1)C.O=S(OCCCCCCCC)([O-])=O,12,1,256,12
313.15,0.1,0.1648,Testing,1-ethyl-3-methylimidazolium octylsulfate,CCCCCCCCOS(=O)(=O)[O-].CCN1C=C[N+](=C1)C,C(C)n1cc[n+](c1)C.CCCCCCCCOS(=O)([O-])=O,12,1,256,12
313.15,0.1,0.1648,Testing,1-ethyl-3-methylimidazolium octylsulfate,CCCCCCCCOS(=O)(=O)[O-].CCN1C=C[N+](=C1)C,O(S(=O)([O-])=O)CCCCCCCC.n1(c[n+](cc1)C)CC,12,1,256,12
313.15,0.1,0.1648,Testing,1-ethyl-3-methylimidazolium octylsulfate,CCCCCCCCOS(=O)(=O)[O-].CCN1C=C[N+](=C1)C,O=S([O-])(=O)OCCCCCCCC.c1[n+](C)ccn1CC,12,1,256,12
313.15,0.1,0.1648,Testing,1-ethyl-3-methylimidazolium octylsulfate,CCCCCCCCOS(=O)(=O)[O-].CCN1C=C[N+](=C1)C,CCCCCCCCOS(=O)(=O)[O-].CCn1cc[n+](c1)C,12,1,256,12
313.15,0.1,0.1648,Testing,1-ethyl-3-methylimidazolium octylsulfate,CCCCCCCCOS(=O)(=O)[O-].CCN1C=C[N+](=C1)C,[O-]S(=O)(OCCCCCCCC)=O.[n+]1(C)cn(cc1)CC,12,1,256,12
313.15,0.1,0.1648,Testing,1-ethyl-3-methylimidazolium octylsulfate,CCCCCCCCOS(=O)(=O)[O-].CCN1C=C[N+](=C1)C,S(=O)([O-])(OCCCCCCCC)=O.n1(CC)cc[n+](C)c1,12,1,256,12
323.15,0.1,0.1629,Training,1-ethyl-3-methylimidazolium octylsulfate,CCCCCCCCOS(=O)(=O)[O-].CCN1C=C[N+](=C1)C,CCCCCCCCOS(=O)(=O)[O-].CCn1cc[n+](C)c1,12,1,257,12
323.15,0.1,0.1629,Training,1-ethyl-3-methylimidazolium octylsulfate,CCCCCCCCOS(=O)(=O)[O-].CCN1C=C[N+](=C1)C,C(CCCCCCC)OS([O-])(=O)=O.c1n(CC)c[n+](c1)C,12,1,257,12
323.15,0.1,0.1629,Training,1-ethyl-3-methylimidazolium octylsulfate,CCCCCCCCOS(=O)(=O)[O-].CCN1C=C[N+](=C1)C,C(C)n1cc[n+](c1)C.C(CCCCCC)COS(=O)([O-])=O,12,1,257,12
323.15,0.1,0.1629,Training,1-ethyl-3-methylimidazolium octylsulfate,CCCCCCCCOS(=O)(=O)[O-].CCN1C=C[N+](=C1)C,C(CCCCCCC)OS(=O)(=O)[O-].CCn1c[n+](cc1)C,12,1,257,12
323.15,0.1,0.1629,Training,1-ethyl-3-methylimidazolium octylsulfate,CCCCCCCCOS(=O)(=O)[O-].CCN1C=C[N+](=C1)C,C[n+]1cn(CC)cc1.O=S(OCCCCCCCC)([O-])=O,12,1,257,12
323.15,0.1,0.1629,Training,1-ethyl-3-methylimidazolium octylsulfate,CCCCCCCCOS(=O)(=O)[O-].CCN1C=C[N+](=C1)C,CCn1cc[n+](c1)C.S(=O)([O-])(OCCCCCCCC)=O,12,1,257,12
323.15,0.1,0.1629,Training,1-ethyl-3-methylimidazolium octylsulfate,CCCCCCCCOS(=O)(=O)[O-].CCN1C=C[N+](=C1)C,C(CCCCCCC)OS([O-])(=O)=O.CCn1cc[n+](c1)C,12,1,257,12
323.15,0.1,0.1629,Training,1-ethyl-3-methylimidazolium octylsulfate,CCCCCCCCOS(=O)(=O)[O-].CCN1C=C[N+](=C1)C,[O-]S(OCCCCCCCC)(=O)=O.c1n(CC)cc[n+]1C,12,1,257,12
323.15,0.1,0.1629,Training,1-ethyl-3-methylimidazolium octylsulfate,CCCCCCCCOS(=O)(=O)[O-].CCN1C=C[N+](=C1)C,C(CCCCCC)COS(=O)([O-])=O.n1(CC)cc[n+](c1)C,12,1,257,12
323.15,0.1,0.1629,Training,1-ethyl-3-methylimidazolium octylsulfate,CCCCCCCCOS(=O)(=O)[O-].CCN1C=C[N+](=C1)C,[O-]S(=O)(=O)OCCCCCCCC.c1n(cc[n+]1C)CC,12,1,257,12
333.15,0.1,0.1631,Testing,1-ethyl-3-methylimidazolium octylsulfate,CCCCCCCCOS(=O)(=O)[O-].CCN1C=C[N+](=C1)C,CCCCCCCCOS(=O)(=O)[O-].CCn1cc[n+](C)c1,12,1,258,12
333.15,0.1,0.1631,Testing,1-ethyl-3-methylimidazolium octylsulfate,CCCCCCCCOS(=O)(=O)[O-].CCN1C=C[N+](=C1)C,C(CCCCCOS([O-])(=O)=O)CC.C[n+]1cn(cc1)CC,12,1,258,12
333.15,0.1,0.1631,Testing,1-ethyl-3-methylimidazolium octylsulfate,CCCCCCCCOS(=O)(=O)[O-].CCN1C=C[N+](=C1)C,CCn1c[n+](cc1)C.[O-]S(=O)(=O)OCCCCCCCC,12,1,258,12
333.15,0.1,0.1631,Testing,1-ethyl-3-methylimidazolium octylsulfate,CCCCCCCCOS(=O)(=O)[O-].CCN1C=C[N+](=C1)C,[O-]S(OCCCCCCCC)(=O)=O.[n+]1(ccn(c1)CC)C,12,1,258,12
333.15,0.1,0.1631,Testing,1-ethyl-3-methylimidazolium octylsulfate,CCCCCCCCOS(=O)(=O)[O-].CCN1C=C[N+](=C1)C,C(C)n1c[n+](cc1)C.[O-]S(=O)(OCCCCCCCC)=O,12,1,258,12
333.15,0.1,0.1631,Testing,1-ethyl-3-methylimidazolium octylsulfate,CCCCCCCCOS(=O)(=O)[O-].CCN1C=C[N+](=C1)C,O=S(OCCCCCCCC)(=O)[O-].c1cn(c[n+]1C)CC,12,1,258,12
333.15,0.1,0.1631,Testing,1-ethyl-3-methylimidazolium octylsulfate,CCCCCCCCOS(=O)(=O)[O-].CCN1C=C[N+](=C1)C,C(C)n1c[n+](cc1)C.C(CCCCCC)COS(=O)(=O)[O-],12,1,258,12
333.15,0.1,0.1631,Testing,1-ethyl-3-methylimidazolium octylsulfate,CCCCCCCCOS(=O)(=O)[O-].CCN1C=C[N+](=C1)C,CCn1c[n+](cc1)C.O(CCCCCCCC)S([O-])(=O)=O,12,1,258,12
333.15,0.1,0.1631,Testing,1-ethyl-3-methylimidazolium octylsulfate,CCCCCCCCOS(=O)(=O)[O-].CCN1C=C[N+](=C1)C,C(n1c[n+](cc1)C)C.O(S(=O)([O-])=O)CCCCCCCC,12,1,258,12
333.15,0.1,0.1631,Testing,1-ethyl-3-methylimidazolium octylsulfate,CCCCCCCCOS(=O)(=O)[O-].CCN1C=C[N+](=C1)C,C(CCCCCCC)OS(=O)([O-])=O.c1[n+](ccn1CC)C,12,1,258,12
343.15,0.1,0.1626,Training,1-ethyl-3-methylimidazolium octylsulfate,CCCCCCCCOS(=O)(=O)[O-].CCN1C=C[N+](=C1)C,CCCCCCCCOS(=O)(=O)[O-].CCn1cc[n+](C)c1,12,1,259,12
343.15,0.1,0.1626,Training,1-ethyl-3-methylimidazolium octylsulfate,CCCCCCCCOS(=O)(=O)[O-].CCN1C=C[N+](=C1)C,C(CCCCC)CCOS([O-])(=O)=O.C(n1cc[n+](c1)C)C,12,1,259,12
343.15,0.1,0.1626,Training,1-ethyl-3-methylimidazolium octylsulfate,CCCCCCCCOS(=O)(=O)[O-].CCN1C=C[N+](=C1)C,CCCCCCCCOS(=O)(=O)[O-].c1n(CC)c[n+](C)c1,12,1,259,12
343.15,0.1,0.1626,Training,1-ethyl-3-methylimidazolium octylsulfate,CCCCCCCCOS(=O)(=O)[O-].CCN1C=C[N+](=C1)C,CCn1cc[n+](C)c1.O=S(OCCCCCCCC)(=O)[O-],12,1,259,12
343.15,0.1,0.1626,Training,1-ethyl-3-methylimidazolium octylsulfate,CCCCCCCCOS(=O)(=O)[O-].CCN1C=C[N+](=C1)C,O(CCCCCCCC)S(=O)([O-])=O.n1(cc[n+](C)c1)CC,12,1,259,12
343.15,0.1,0.1626,Training,1-ethyl-3-methylimidazolium octylsulfate,CCCCCCCCOS(=O)(=O)[O-].CCN1C=C[N+](=C1)C,CCn1c[n+](cc1)C.S(=O)(=O)([O-])OCCCCCCCC,12,1,259,12
343.15,0.1,0.1626,Training,1-ethyl-3-methylimidazolium octylsulfate,CCCCCCCCOS(=O)(=O)[O-].CCN1C=C[N+](=C1)C,O=S(OCCCCCCCC)([O-])=O.c1c[n+](C)cn1CC,12,1,259,12
343.15,0.1,0.1626,Training,1-ethyl-3-methylimidazolium octylsulfate,CCCCCCCCOS(=O)(=O)[O-].CCN1C=C[N+](=C1)C,C(CCOS(=O)(=O)[O-])CCCCC.c1c[n+](cn1CC)C,12,1,259,12
343.15,0.1,0.1626,Training,1-ethyl-3-methylimidazolium octylsulfate,CCCCCCCCOS(=O)(=O)[O-].CCN1C=C[N+](=C1)C,C(C)n1cc[n+](C)c1.C(CCCOS(=O)(=O)[O-])CCCC,12,1,259,12
343.15,0.1,0.1626,Training,1-ethyl-3-methylimidazolium octylsulfate,CCCCCCCCOS(=O)(=O)[O-].CCN1C=C[N+](=C1)C,C(OS([O-])(=O)=O)CCCCCCC.n1(cc[n+](c1)C)CC,12,1,259,12
353.15,0.1,0.1621,Training,1-ethyl-3-methylimidazolium octylsulfate,CCCCCCCCOS(=O)(=O)[O-].CCN1C=C[N+](=C1)C,CCCCCCCCOS(=O)(=O)[O-].CCn1cc[n+](C)c1,12,1,260,12
353.15,0.1,0.1621,Training,1-ethyl-3-methylimidazolium octylsulfate,CCCCCCCCOS(=O)(=O)[O-].CCN1C=C[N+](=C1)C,S(OCCCCCCCC)([O-])(=O)=O.n1(CC)c[n+](C)cc1,12,1,260,12
353.15,0.1,0.1621,Training,1-ethyl-3-methylimidazolium octylsulfate,CCCCCCCCOS(=O)(=O)[O-].CCN1C=C[N+](=C1)C,CCn1cc[n+](C)c1.S([O-])(=O)(OCCCCCCCC)=O,12,1,260,12
353.15,0.1,0.1621,Training,1-ethyl-3-methylimidazolium octylsulfate,CCCCCCCCOS(=O)(=O)[O-].CCN1C=C[N+](=C1)C,O(S(=O)(=O)[O-])CCCCCCCC.c1[n+](ccn1CC)C,12,1,260,12
353.15,0.1,0.1621,Training,1-ethyl-3-methylimidazolium octylsulfate,CCCCCCCCOS(=O)(=O)[O-].CCN1C=C[N+](=C1)C,O=S([O-])(OCCCCCCCC)=O.n1(c[n+](cc1)C)CC,12,1,260,12
353.15,0.1,0.1621,Training,1-ethyl-3-methylimidazolium octylsulfate,CCCCCCCCOS(=O)(=O)[O-].CCN1C=C[N+](=C1)C,C(CC)CCCCCOS(=O)(=O)[O-].C[n+]1cn(CC)cc1,12,1,260,12
353.15,0.1,0.1621,Training,1-ethyl-3-methylimidazolium octylsulfate,CCCCCCCCOS(=O)(=O)[O-].CCN1C=C[N+](=C1)C,C(CCCC)CCCOS(=O)(=O)[O-].c1n(CC)c[n+](c1)C,12,1,260,12
353.15,0.1,0.1621,Training,1-ethyl-3-methylimidazolium octylsulfate,CCCCCCCCOS(=O)(=O)[O-].CCN1C=C[N+](=C1)C,CCn1cc[n+](c1)C.[O-]S(=O)(=O)OCCCCCCCC,12,1,260,12
353.15,0.1,0.1621,Training,1-ethyl-3-methylimidazolium octylsulfate,CCCCCCCCOS(=O)(=O)[O-].CCN1C=C[N+](=C1)C,C(CC)CCCCCOS(=O)([O-])=O.c1n(CC)c[n+](c1)C,12,1,260,12
353.15,0.1,0.1621,Training,1-ethyl-3-methylimidazolium octylsulfate,CCCCCCCCOS(=O)(=O)[O-].CCN1C=C[N+](=C1)C,C(CCCCOS(=O)(=O)[O-])CCC.c1cn(c[n+]1C)CC,12,1,260,12
273.15,0.1,0.1238,Training,1-hexyl-3-methylimidazolium bis(trifluoromethylsulfonyl)imide,CCCCCCN1C=C[N+](=C1)C.C(F)(F)(F)S(=O)(=O)[N-]S(=O)(=O)C(F)(F)F,CCCCCCn1cc[n+](C)c1.O=S(=O)([N-]S(=O)(=O)C(F)(F)F)C(F)(F)F,13,1,261,13
273.15,0.1,0.1238,Training,1-hexyl-3-methylimidazolium bis(trifluoromethylsulfonyl)imide,CCCCCCN1C=C[N+](=C1)C.C(F)(F)(F)S(=O)(=O)[N-]S(=O)(=O)C(F)(F)F,C(CC)CCCn1cc[n+](C)c1.FC(F)(S([N-]S(=O)(=O)C(F)(F)F)(=O)=O)F,13,1,261,13
273.15,0.1,0.1238,Training,1-hexyl-3-methylimidazolium bis(trifluoromethylsulfonyl)imide,CCCCCCN1C=C[N+](=C1)C.C(F)(F)(F)S(=O)(=O)[N-]S(=O)(=O)C(F)(F)F,C(CCCn1cc[n+](C)c1)CC.FC(F)(S(=O)(=O)[N-]S(=O)(=O)C(F)(F)F)F,13,1,261,13