T/K,P/MPa,TC/W m-1 K-1,Data type,Name,SMILES,Normalized SMILES,index,P/bar,RANDOM,IL
364.36,0.1,0.1142,Training,1-butyl-1-methyl-pyrrolidinium bis(trifluoromethylsulfonyl)imide,CCCC[N+]1(CCCC1)C.C(F)(F)(F)S(=O)(=O)[N-]S(=O)(=O)C(F)(F)F,C([N+]1(C)CCCC1)CCC.O=S(C(F)(F)F)(=O)[N-]S(=O)(C(F)(F)F)=O,2,1,548,2
364.36,0.1,0.1142,Training,1-butyl-1-methyl-pyrrolidinium bis(trifluoromethylsulfonyl)imide,CCCC[N+]1(CCCC1)C.C(F)(F)(F)S(=O)(=O)[N-]S(=O)(=O)C(F)(F)F,C(C)CC[N+]1(CCCC1)C.S(=O)([N-]S(=O)(C(F)(F)F)=O)(=O)C(F)(F)F,2,1,548,2
364.36,0.1,0.1142,Training,1-butyl-1-methyl-pyrrolidinium bis(trifluoromethylsulfonyl)imide,CCCC[N+]1(CCCC1)C.C(F)(F)(F)S(=O)(=O)[N-]S(=O)(=O)C(F)(F)F,C(CC)C[N+]1(CCCC1)C.FC(S(=O)([N-]S(C(F)(F)F)(=O)=O)=O)(F)F,2,1,548,2
383.56,0.1,0.1134,Training,1-butyl-1-methyl-pyrrolidinium bis(trifluoromethylsulfonyl)imide,CCCC[N+]1(CCCC1)C.C(F)(F)(F)S(=O)(=O)[N-]S(=O)(=O)C(F)(F)F,CCCC[N+]1(C)CCCC1.O=S(=O)([N-]S(=O)(=O)C(F)(F)F)C(F)(F)F,2,1,549,2
383.56,0.1,0.1134,Training,1-butyl-1-methyl-pyrrolidinium bis(trifluoromethylsulfonyl)imide,CCCC[N+]1(CCCC1)C.C(F)(F)(F)S(=O)(=O)[N-]S(=O)(=O)C(F)(F)F,C(C)CC[N+]1(C)CCCC1.C(F)(S(=O)(=O)[N-]S(C(F)(F)F)(=O)=O)(F)F,2,1,549,2
383.56,0.1,0.1134,Training,1-butyl-1-methyl-pyrrolidinium bis(trifluoromethylsulfonyl)imide,CCCC[N+]1(CCCC1)C.C(F)(F)(F)S(=O)(=O)[N-]S(=O)(=O)C(F)(F)F,C1CCC[N+]1(CCCC)C.S(=O)(=O)(C(F)(F)F)[N-]S(=O)(C(F)(F)F)=O,2,1,549,2
383.56,0.1,0.1134,Training,1-butyl-1-methyl-pyrrolidinium bis(trifluoromethylsulfonyl)imide,CCCC[N+]1(CCCC1)C.C(F)(F)(F)S(=O)(=O)[N-]S(=O)(=O)C(F)(F)F,C(CC[N+]1(CCCC1)C)C.FC(F)(S(=O)(=O)[N-]S(=O)(C(F)(F)F)=O)F,2,1,549,2
383.56,0.1,0.1134,Training,1-butyl-1-methyl-pyrrolidinium bis(trifluoromethylsulfonyl)imide,CCCC[N+]1(CCCC1)C.C(F)(F)(F)S(=O)(=O)[N-]S(=O)(=O)C(F)(F)F,C([N+]1(CCCC1)C)CCC.FC(F)(F)S(=O)(=O)[N-]S(=O)(C(F)(F)F)=O,2,1,549,2
383.56,0.1,0.1134,Training,1-butyl-1-methyl-pyrrolidinium bis(trifluoromethylsulfonyl)imide,CCCC[N+]1(CCCC1)C.C(F)(F)(F)S(=O)(=O)[N-]S(=O)(=O)C(F)(F)F,C(CCC)[N+]1(C)CCCC1.O=S(C(F)(F)F)([N-]S(=O)(=O)C(F)(F)F)=O,2,1,549,2
383.56,0.1,0.1134,Training,1-butyl-1-methyl-pyrrolidinium bis(trifluoromethylsulfonyl)imide,CCCC[N+]1(CCCC1)C.C(F)(F)(F)S(=O)(=O)[N-]S(=O)(=O)C(F)(F)F,C(F)(F)(S([N-]S(=O)(C(F)(F)F)=O)(=O)=O)F.CCCC[N+]1(CCCC1)C,2,1,549,2
383.56,0.1,0.1134,Training,1-butyl-1-methyl-pyrrolidinium bis(trifluoromethylsulfonyl)imide,CCCC[N+]1(CCCC1)C.C(F)(F)(F)S(=O)(=O)[N-]S(=O)(=O)C(F)(F)F,C(CC[N+]1(CCCC1)C)C.C(F)(F)(F)S(=O)([N-]S(=O)(=O)C(F)(F)F)=O,2,1,549,2
383.56,0.1,0.1134,Training,1-butyl-1-methyl-pyrrolidinium bis(trifluoromethylsulfonyl)imide,CCCC[N+]1(CCCC1)C.C(F)(F)(F)S(=O)(=O)[N-]S(=O)(=O)C(F)(F)F,C1CC[N+](C1)(CCCC)C.FC(S([N-]S(C(F)(F)F)(=O)=O)(=O)=O)(F)F,2,1,549,2
383.56,0.1,0.1134,Training,1-butyl-1-methyl-pyrrolidinium bis(trifluoromethylsulfonyl)imide,CCCC[N+]1(CCCC1)C.C(F)(F)(F)S(=O)(=O)[N-]S(=O)(=O)C(F)(F)F,C(CC)C[N+]1(C)CCCC1.FC(S(=O)(=O)[N-]S(=O)(=O)C(F)(F)F)(F)F,2,1,549,2
419.99,0.1,0.1126,Training,1-butyl-1-methyl-pyrrolidinium bis(trifluoromethylsulfonyl)imide,CCCC[N+]1(CCCC1)C.C(F)(F)(F)S(=O)(=O)[N-]S(=O)(=O)C(F)(F)F,CCCC[N+]1(C)CCCC1.O=S(=O)([N-]S(=O)(=O)C(F)(F)F)C(F)(F)F,2,1,550,2
419.99,0.1,0.1126,Training,1-butyl-1-methyl-pyrrolidinium bis(trifluoromethylsulfonyl)imide,CCCC[N+]1(CCCC1)C.C(F)(F)(F)S(=O)(=O)[N-]S(=O)(=O)C(F)(F)F,C(C)CC[N+]1(CCCC1)C.O=S(C(F)(F)F)([N-]S(=O)(C(F)(F)F)=O)=O,2,1,550,2
419.99,0.1,0.1126,Training,1-butyl-1-methyl-pyrrolidinium bis(trifluoromethylsulfonyl)imide,CCCC[N+]1(CCCC1)C.C(F)(F)(F)S(=O)(=O)[N-]S(=O)(=O)C(F)(F)F,O=S([N-]S(=O)(C(F)(F)F)=O)(C(F)(F)F)=O.[N+]1(C)(CCCC1)CCCC,2,1,550,2
419.99,0.1,0.1126,Training,1-butyl-1-methyl-pyrrolidinium bis(trifluoromethylsulfonyl)imide,CCCC[N+]1(CCCC1)C.C(F)(F)(F)S(=O)(=O)[N-]S(=O)(=O)C(F)(F)F,C1CCC[N+]1(CCCC)C.S([N-]S(=O)(C(F)(F)F)=O)(=O)(=O)C(F)(F)F,2,1,550,2
419.99,0.1,0.1126,Training,1-butyl-1-methyl-pyrrolidinium bis(trifluoromethylsulfonyl)imide,CCCC[N+]1(CCCC1)C.C(F)(F)(F)S(=O)(=O)[N-]S(=O)(=O)C(F)(F)F,CCCC[N+]1(C)CCCC1.O=S([N-]S(=O)(=O)C(F)(F)F)(=O)C(F)(F)F,2,1,550,2
419.99,0.1,0.1126,Training,1-butyl-1-methyl-pyrrolidinium bis(trifluoromethylsulfonyl)imide,CCCC[N+]1(CCCC1)C.C(F)(F)(F)S(=O)(=O)[N-]S(=O)(=O)C(F)(F)F,C(S(=O)([N-]S(=O)(=O)C(F)(F)F)=O)(F)(F)F.C[N+]1(CCCC)CCCC1,2,1,550,2
419.99,0.1,0.1126,Training,1-butyl-1-methyl-pyrrolidinium bis(trifluoromethylsulfonyl)imide,CCCC[N+]1(CCCC1)C.C(F)(F)(F)S(=O)(=O)[N-]S(=O)(=O)C(F)(F)F,C1[N+](CCC1)(CCCC)C.O=S(C(F)(F)F)([N-]S(C(F)(F)F)(=O)=O)=O,2,1,550,2
419.99,0.1,0.1126,Training,1-butyl-1-methyl-pyrrolidinium bis(trifluoromethylsulfonyl)imide,CCCC[N+]1(CCCC1)C.C(F)(F)(F)S(=O)(=O)[N-]S(=O)(=O)C(F)(F)F,C(CC)C[N+]1(CCCC1)C.O=S([N-]S(=O)(=O)C(F)(F)F)(=O)C(F)(F)F,2,1,550,2
419.99,0.1,0.1126,Training,1-butyl-1-methyl-pyrrolidinium bis(trifluoromethylsulfonyl)imide,CCCC[N+]1(CCCC1)C.C(F)(F)(F)S(=O)(=O)[N-]S(=O)(=O)C(F)(F)F,C(C[N+]1(CCCC1)C)CC.FC(F)(F)S(=O)([N-]S(=O)(=O)C(F)(F)F)=O,2,1,550,2
419.99,0.1,0.1126,Training,1-butyl-1-methyl-pyrrolidinium bis(trifluoromethylsulfonyl)imide,CCCC[N+]1(CCCC1)C.C(F)(F)(F)S(=O)(=O)[N-]S(=O)(=O)C(F)(F)F,C1C[N+](C)(CC1)CCCC.FC(F)(S(=O)([N-]S(=O)(C(F)(F)F)=O)=O)F,2,1,550,2
438.07,0.1,0.1123,Training,1-butyl-1-methyl-pyrrolidinium bis(trifluoromethylsulfonyl)imide,CCCC[N+]1(CCCC1)C.C(F)(F)(F)S(=O)(=O)[N-]S(=O)(=O)C(F)(F)F,CCCC[N+]1(C)CCCC1.O=S(=O)([N-]S(=O)(=O)C(F)(F)F)C(F)(F)F,2,1,551,2
438.07,0.1,0.1123,Training,1-butyl-1-methyl-pyrrolidinium bis(trifluoromethylsulfonyl)imide,CCCC[N+]1(CCCC1)C.C(F)(F)(F)S(=O)(=O)[N-]S(=O)(=O)C(F)(F)F,C(S(=O)([N-]S(C(F)(F)F)(=O)=O)=O)(F)(F)F.[N+]1(C)(CCCC)CCCC1,2,1,551,2
438.07,0.1,0.1123,Training,1-butyl-1-methyl-pyrrolidinium bis(trifluoromethylsulfonyl)imide,CCCC[N+]1(CCCC1)C.C(F)(F)(F)S(=O)(=O)[N-]S(=O)(=O)C(F)(F)F,C(S(=O)([N-]S(C(F)(F)F)(=O)=O)=O)(F)(F)F.CCCC[N+]1(CCCC1)C,2,1,551,2
438.07,0.1,0.1123,Training,1-butyl-1-methyl-pyrrolidinium bis(trifluoromethylsulfonyl)imide,CCCC[N+]1(CCCC1)C.C(F)(F)(F)S(=O)(=O)[N-]S(=O)(=O)C(F)(F)F,CCCC[N+]1(CCCC1)C.FC(F)(F)S(=O)(=O)[N-]S(=O)(=O)C(F)(F)F,2,1,551,2