T/K,P/MPa,TC/W m-1 K-1,Data type,Name,SMILES,Normalized SMILES,index,P/bar,RANDOM,IL
303.0,0.1,0.141,Training,1-hexyl-3-methylimidazolium hexafluorophosphate,CCCCCCN1C=C[N+](=C1)C.F[P-](F)(F)(F)(F)F,[P-](F)(F)(F)(F)(F)F.c1c[n+](cn1CCCCCC)C,34,1,450,34
313.0,0.1,0.141,Training,1-hexyl-3-methylimidazolium hexafluorophosphate,CCCCCCN1C=C[N+](=C1)C.F[P-](F)(F)(F)(F)F,CCCCCCn1cc[n+](C)c1.F[P-](F)(F)(F)(F)F,34,1,451,34
313.0,0.1,0.141,Training,1-hexyl-3-methylimidazolium hexafluorophosphate,CCCCCCN1C=C[N+](=C1)C.F[P-](F)(F)(F)(F)F,C(CCC)CCn1c[n+](C)cc1.[P-](F)(F)(F)(F)(F)F,34,1,451,34
313.0,0.1,0.141,Training,1-hexyl-3-methylimidazolium hexafluorophosphate,CCCCCCN1C=C[N+](=C1)C.F[P-](F)(F)(F)(F)F,C[n+]1cn(cc1)CCCCCC.F[P-](F)(F)(F)(F)F,34,1,451,34
313.0,0.1,0.141,Training,1-hexyl-3-methylimidazolium hexafluorophosphate,CCCCCCN1C=C[N+](=C1)C.F[P-](F)(F)(F)(F)F,[P-](F)(F)(F)(F)(F)F.c1c[n+](cn1CCCCCC)C,34,1,451,34
313.0,0.1,0.141,Training,1-hexyl-3-methylimidazolium hexafluorophosphate,CCCCCCN1C=C[N+](=C1)C.F[P-](F)(F)(F)(F)F,F[P-](F)(F)(F)(F)F.n1(cc[n+](c1)C)CCCCCC,34,1,451,34
313.0,0.1,0.141,Training,1-hexyl-3-methylimidazolium hexafluorophosphate,CCCCCCN1C=C[N+](=C1)C.F[P-](F)(F)(F)(F)F,F[P-](F)(F)(F)(F)F.c1n(CCCCCC)cc[n+]1C,34,1,451,34
313.0,0.1,0.141,Training,1-hexyl-3-methylimidazolium hexafluorophosphate,CCCCCCN1C=C[N+](=C1)C.F[P-](F)(F)(F)(F)F,F[P-](F)(F)(F)(F)F.c1[n+](C)cn(CCCCCC)c1,34,1,451,34
323.0,0.1,0.139,Training,1-hexyl-3-methylimidazolium hexafluorophosphate,CCCCCCN1C=C[N+](=C1)C.F[P-](F)(F)(F)(F)F,CCCCCCn1cc[n+](C)c1.F[P-](F)(F)(F)(F)F,34,1,452,34
323.0,0.1,0.139,Training,1-hexyl-3-methylimidazolium hexafluorophosphate,CCCCCCN1C=C[N+](=C1)C.F[P-](F)(F)(F)(F)F,C(CCCCn1cc[n+](c1)C)C.F[P-](F)(F)(F)(F)F,34,1,452,34
323.0,0.1,0.139,Training,1-hexyl-3-methylimidazolium hexafluorophosphate,CCCCCCN1C=C[N+](=C1)C.F[P-](F)(F)(F)(F)F,C(C)CCCCn1cc[n+](C)c1.F[P-](F)(F)(F)(F)F,34,1,452,34
323.0,0.1,0.139,Training,1-hexyl-3-methylimidazolium hexafluorophosphate,CCCCCCN1C=C[N+](=C1)C.F[P-](F)(F)(F)(F)F,F[P-](F)(F)(F)(F)F.[n+]1(C)cn(cc1)CCCCCC,34,1,452,34
323.0,0.1,0.139,Training,1-hexyl-3-methylimidazolium hexafluorophosphate,CCCCCCN1C=C[N+](=C1)C.F[P-](F)(F)(F)(F)F,C(CCCC)Cn1c[n+](C)cc1.F[P-](F)(F)(F)(F)F,34,1,452,34
323.0,0.1,0.139,Training,1-hexyl-3-methylimidazolium hexafluorophosphate,CCCCCCN1C=C[N+](=C1)C.F[P-](F)(F)(F)(F)F,C(CCCCn1c[n+](C)cc1)C.F[P-](F)(F)(F)(F)F,34,1,452,34
323.0,0.1,0.139,Training,1-hexyl-3-methylimidazolium hexafluorophosphate,CCCCCCN1C=C[N+](=C1)C.F[P-](F)(F)(F)(F)F,C(C)CCCCn1c[n+](C)cc1.F[P-](F)(F)(F)(F)F,34,1,452,34
323.0,0.1,0.139,Training,1-hexyl-3-methylimidazolium hexafluorophosphate,CCCCCCN1C=C[N+](=C1)C.F[P-](F)(F)(F)(F)F,CCCCCCn1cc[n+](c1)C.F[P-](F)(F)(F)(F)F,34,1,452,34
323.0,0.1,0.139,Training,1-hexyl-3-methylimidazolium hexafluorophosphate,CCCCCCN1C=C[N+](=C1)C.F[P-](F)(F)(F)(F)F,F[P-](F)(F)(F)(F)F.n1(cc[n+](C)c1)CCCCCC,34,1,452,34
323.0,0.1,0.139,Training,1-hexyl-3-methylimidazolium hexafluorophosphate,CCCCCCN1C=C[N+](=C1)C.F[P-](F)(F)(F)(F)F,C(CCC)CCn1c[n+](C)cc1.F[P-](F)(F)(F)(F)F,34,1,452,34
333.0,0.1,0.139,Training,1-hexyl-3-methylimidazolium hexafluorophosphate,CCCCCCN1C=C[N+](=C1)C.F[P-](F)(F)(F)(F)F,CCCCCCn1cc[n+](C)c1.F[P-](F)(F)(F)(F)F,34,1,453,34
333.0,0.1,0.139,Training,1-hexyl-3-methylimidazolium hexafluorophosphate,CCCCCCN1C=C[N+](=C1)C.F[P-](F)(F)(F)(F)F,[P-](F)(F)(F)(F)(F)F.c1[n+](C)cn(CCCCCC)c1,34,1,453,34
333.0,0.1,0.139,Training,1-hexyl-3-methylimidazolium hexafluorophosphate,CCCCCCN1C=C[N+](=C1)C.F[P-](F)(F)(F)(F)F,F[P-](F)(F)(F)(F)F.n1(cc[n+](c1)C)CCCCCC,34,1,453,34
333.0,0.1,0.139,Training,1-hexyl-3-methylimidazolium hexafluorophosphate,CCCCCCN1C=C[N+](=C1)C.F[P-](F)(F)(F)(F)F,C(CCCn1c[n+](cc1)C)CC.F[P-](F)(F)(F)(F)F,34,1,453,34
333.0,0.1,0.139,Training,1-hexyl-3-methylimidazolium hexafluorophosphate,CCCCCCN1C=C[N+](=C1)C.F[P-](F)(F)(F)(F)F,C(n1c[n+](C)cc1)CCCCC.F[P-](F)(F)(F)(F)F,34,1,453,34
333.0,0.1,0.139,Training,1-hexyl-3-methylimidazolium hexafluorophosphate,CCCCCCN1C=C[N+](=C1)C.F[P-](F)(F)(F)(F)F,C(CC)CCCn1cc[n+](C)c1.[P-](F)(F)(F)(F)(F)F,34,1,453,34
333.0,0.1,0.139,Training,1-hexyl-3-methylimidazolium hexafluorophosphate,CCCCCCN1C=C[N+](=C1)C.F[P-](F)(F)(F)(F)F,C(Cn1c[n+](cc1)C)CCCC.F[P-](F)(F)(F)(F)F,34,1,453,34
333.0,0.1,0.139,Training,1-hexyl-3-methylimidazolium hexafluorophosphate,CCCCCCN1C=C[N+](=C1)C.F[P-](F)(F)(F)(F)F,F[P-](F)(F)(F)(F)F.c1c[n+](C)cn1CCCCCC,34,1,453,34
333.0,0.1,0.139,Training,1-hexyl-3-methylimidazolium hexafluorophosphate,CCCCCCN1C=C[N+](=C1)C.F[P-](F)(F)(F)(F)F,F[P-](F)(F)(F)(F)F.[n+]1(cn(cc1)CCCCCC)C,34,1,453,34
343.0,0.1,0.138,Training,1-hexyl-3-methylimidazolium hexafluorophosphate,CCCCCCN1C=C[N+](=C1)C.F[P-](F)(F)(F)(F)F,CCCCCCn1cc[n+](C)c1.F[P-](F)(F)(F)(F)F,34,1,454,34
343.0,0.1,0.138,Training,1-hexyl-3-methylimidazolium hexafluorophosphate,CCCCCCN1C=C[N+](=C1)C.F[P-](F)(F)(F)(F)F,C[n+]1ccn(CCCCCC)c1.F[P-](F)(F)(F)(F)F,34,1,454,34
343.0,0.1,0.138,Training,1-hexyl-3-methylimidazolium hexafluorophosphate,CCCCCCN1C=C[N+](=C1)C.F[P-](F)(F)(F)(F)F,F[P-](F)(F)(F)(F)F.c1n(CCCCCC)cc[n+]1C,34,1,454,34
343.0,0.1,0.138,Training,1-hexyl-3-methylimidazolium hexafluorophosphate,CCCCCCN1C=C[N+](=C1)C.F[P-](F)(F)(F)(F)F,F[P-](F)(F)(F)(F)F.c1c[n+](C)cn1CCCCCC,34,1,454,34
343.0,0.1,0.138,Training,1-hexyl-3-methylimidazolium hexafluorophosphate,CCCCCCN1C=C[N+](=C1)C.F[P-](F)(F)(F)(F)F,C(CCC)CCn1c[n+](cc1)C.F[P-](F)(F)(F)(F)F,34,1,454,34
343.0,0.1,0.138,Training,1-hexyl-3-methylimidazolium hexafluorophosphate,CCCCCCN1C=C[N+](=C1)C.F[P-](F)(F)(F)(F)F,C(n1c[n+](C)cc1)CCCCC.F[P-](F)(F)(F)(F)F,34,1,454,34
343.0,0.1,0.138,Training,1-hexyl-3-methylimidazolium hexafluorophosphate,CCCCCCN1C=C[N+](=C1)C.F[P-](F)(F)(F)(F)F,F[P-](F)(F)(F)(F)F.c1n(CCCCCC)c[n+](C)c1,34,1,454,34
343.0,0.1,0.138,Training,1-hexyl-3-methylimidazolium hexafluorophosphate,CCCCCCN1C=C[N+](=C1)C.F[P-](F)(F)(F)(F)F,F[P-](F)(F)(F)(F)F.c1c[n+](cn1CCCCCC)C,34,1,454,34
343.0,0.1,0.138,Training,1-hexyl-3-methylimidazolium hexafluorophosphate,CCCCCCN1C=C[N+](=C1)C.F[P-](F)(F)(F)(F)F,C(CCCn1c[n+](cc1)C)CC.[P-](F)(F)(F)(F)(F)F,34,1,454,34
343.0,0.1,0.138,Training,1-hexyl-3-methylimidazolium hexafluorophosphate,CCCCCCN1C=C[N+](=C1)C.F[P-](F)(F)(F)(F)F,F[P-](F)(F)(F)(F)F.c1n(cc[n+]1C)CCCCCC,34,1,454,34
353.0,0.1,0.138,Training,1-hexyl-3-methylimidazolium hexafluorophosphate,CCCCCCN1C=C[N+](=C1)C.F[P-](F)(F)(F)(F)F,CCCCCCn1cc[n+](C)c1.F[P-](F)(F)(F)(F)F,34,1,455,34
353.0,0.1,0.138,Training,1-hexyl-3-methylimidazolium hexafluorophosphate,CCCCCCN1C=C[N+](=C1)C.F[P-](F)(F)(F)(F)F,F[P-](F)(F)(F)(F)F.n1(cc[n+](C)c1)CCCCCC,34,1,455,34
353.0,0.1,0.138,Training,1-hexyl-3-methylimidazolium hexafluorophosphate,CCCCCCN1C=C[N+](=C1)C.F[P-](F)(F)(F)(F)F,C(C)CCCCn1cc[n+](c1)C.[P-](F)(F)(F)(F)(F)F,34,1,455,34
353.0,0.1,0.138,Training,1-hexyl-3-methylimidazolium hexafluorophosphate,CCCCCCN1C=C[N+](=C1)C.F[P-](F)(F)(F)(F)F,F[P-](F)(F)(F)(F)F.[n+]1(C)ccn(c1)CCCCCC,34,1,455,34
353.0,0.1,0.138,Training,1-hexyl-3-methylimidazolium hexafluorophosphate,CCCCCCN1C=C[N+](=C1)C.F[P-](F)(F)(F)(F)F,F[P-](F)(F)(F)(F)F.c1[n+](ccn1CCCCCC)C,34,1,455,34
353.0,0.1,0.138,Training,1-hexyl-3-methylimidazolium hexafluorophosphate,CCCCCCN1C=C[N+](=C1)C.F[P-](F)(F)(F)(F)F,[P-](F)(F)(F)(F)(F)F.c1n(CCCCCC)c[n+](C)c1,34,1,455,34
353.0,0.1,0.138,Training,1-hexyl-3-methylimidazolium hexafluorophosphate,CCCCCCN1C=C[N+](=C1)C.F[P-](F)(F)(F)(F)F,[P-](F)(F)(F)(F)(F)F.[n+]1(C)ccn(CCCCCC)c1,34,1,455,34
353.0,0.1,0.138,Training,1-hexyl-3-methylimidazolium hexafluorophosphate,CCCCCCN1C=C[N+](=C1)C.F[P-](F)(F)(F)(F)F,C[n+]1cn(CCCCCC)cc1.F[P-](F)(F)(F)(F)F,34,1,455,34
353.0,0.1,0.138,Training,1-hexyl-3-methylimidazolium hexafluorophosphate,CCCCCCN1C=C[N+](=C1)C.F[P-](F)(F)(F)(F)F,CCCCCCn1c[n+](C)cc1.[P-](F)(F)(F)(F)(F)F,34,1,455,34
294.2,0.1,0.171,Training,N-butylpyridinium tetrafluoroborate,[B-](F)(F)(F)F.CCCC[N+]1=CC=CC=C1,CCCC[n+]1ccccc1.F[B-](F)(F)F,35,1,456,35
294.2,0.1,0.171,Training,N-butylpyridinium tetrafluoroborate,[B-](F)(F)(F)F.CCCC[N+]1=CC=CC=C1,[B-](F)(F)(F)F.c1ccc[n+](c1)CCCC,35,1,456,35
294.2,0.1,0.171,Training,N-butylpyridinium tetrafluoroborate,[B-](F)(F)(F)F.CCCC[N+]1=CC=CC=C1,C([n+]1ccccc1)CCC.F[B-](F)(F)F,35,1,456,35
294.2,0.1,0.171,Training,N-butylpyridinium tetrafluoroborate,[B-](F)(F)(F)F.CCCC[N+]1=CC=CC=C1,F[B-](F)(F)F.c1ccc[n+](c1)CCCC,35,1,456,35
294.2,0.1,0.171,Training,N-butylpyridinium tetrafluoroborate,[B-](F)(F)(F)F.CCCC[N+]1=CC=CC=C1,F[B-](F)(F)F.c1c[n+](CCCC)ccc1,35,1,456,35
294.2,0.1,0.171,Training,N-butylpyridinium tetrafluoroborate,[B-](F)(F)(F)F.CCCC[N+]1=CC=CC=C1,C(CCC)[n+]1ccccc1.F[B-](F)(F)F,35,1,456,35
294.2,0.1,0.171,Training,N-butylpyridinium tetrafluoroborate,[B-](F)(F)(F)F.CCCC[N+]1=CC=CC=C1,C(CC[n+]1ccccc1)C.[B-](F)(F)(F)F,35,1,456,35
294.2,0.1,0.171,Training,N-butylpyridinium tetrafluoroborate,[B-](F)(F)(F)F.CCCC[N+]1=CC=CC=C1,F[B-](F)(F)F.c1ccc[n+](CCCC)c1,35,1,456,35
294.2,10.0,0.171,Training,N-butylpyridinium tetrafluoroborate,[B-](F)(F)(F)F.CCCC[N+]1=CC=CC=C1,CCCC[n+]1ccccc1.F[B-](F)(F)F,35,100,457,35
294.2,10.0,0.171,Training,N-butylpyridinium tetrafluoroborate,[B-](F)(F)(F)F.CCCC[N+]1=CC=CC=C1,F[B-](F)(F)F.c1cccc[n+]1CCCC,35,100,457,35
294.2,10.0,0.171,Training,N-butylpyridinium tetrafluoroborate,[B-](F)(F)(F)F.CCCC[N+]1=CC=CC=C1,F[B-](F)(F)F.c1ccc[n+](c1)CCCC,35,100,457,35
294.2,10.0,0.171,Training,N-butylpyridinium tetrafluoroborate,[B-](F)(F)(F)F.CCCC[N+]1=CC=CC=C1,C(CC)C[n+]1ccccc1.F[B-](F)(F)F,35,100,457,35
294.2,10.0,0.171,Training,N-butylpyridinium tetrafluoroborate,[B-](F)(F)(F)F.CCCC[N+]1=CC=CC=C1,[B-](F)(F)(F)F.[n+]1(ccccc1)CCCC,35,100,457,35
294.2,10.0,0.171,Training,N-butylpyridinium tetrafluoroborate,[B-](F)(F)(F)F.CCCC[N+]1=CC=CC=C1,C(C)CC[n+]1ccccc1.F[B-](F)(F)F,35,100,457,35
294.2,10.0,0.171,Training,N-butylpyridinium tetrafluoroborate,[B-](F)(F)(F)F.CCCC[N+]1=CC=CC=C1,CCCC[n+]1ccccc1.[B-](F)(F)(F)F,35,100,457,35
294.2,10.0,0.171,Training,N-butylpyridinium tetrafluoroborate,[B-](F)(F)(F)F.CCCC[N+]1=CC=CC=C1,C(C)CC[n+]1ccccc1.[B-](F)(F)(F)F,35,100,457,35
294.2,10.0,0.171,Training,N-butylpyridinium tetrafluoroborate,[B-](F)(F)(F)F.CCCC[N+]1=CC=CC=C1,F[B-](F)(F)F.c1[n+](cccc1)CCCC,35,100,457,35
294.2,20.0,0.173,Training,N-butylpyridinium tetrafluoroborate,[B-](F)(F)(F)F.CCCC[N+]1=CC=CC=C1,CCCC[n+]1ccccc1.F[B-](F)(F)F,35,200,458,35
294.2,20.0,0.173,Training,N-butylpyridinium tetrafluoroborate,[B-](F)(F)(F)F.CCCC[N+]1=CC=CC=C1,F[B-](F)(F)F.[n+]1(ccccc1)CCCC,35,200,458,35
294.2,20.0,0.173,Training,N-butylpyridinium tetrafluoroborate,[B-](F)(F)(F)F.CCCC[N+]1=CC=CC=C1,F[B-](F)(F)F.c1cc[n+](cc1)CCCC,35,200,458,35
294.2,20.0,0.173,Training,N-butylpyridinium tetrafluoroborate,[B-](F)(F)(F)F.CCCC[N+]1=CC=CC=C1,CCCC[n+]1ccccc1.[B-](F)(F)(F)F,35,200,458,35
294.2,20.0,0.173,Training,N-butylpyridinium tetrafluoroborate,[B-](F)(F)(F)F.CCCC[N+]1=CC=CC=C1,[B-](F)(F)(F)F.c1[n+](CCCC)cccc1,35,200,458,35
294.2,20.0,0.173,Training,N-butylpyridinium tetrafluoroborate,[B-](F)(F)(F)F.CCCC[N+]1=CC=CC=C1,F[B-](F)(F)F.c1[n+](CCCC)cccc1,35,200,458,35
314.3,0.1,0.17,Training,N-butylpyridinium tetrafluoroborate,[B-](F)(F)(F)F.CCCC[N+]1=CC=CC=C1,CCCC[n+]1ccccc1.F[B-](F)(F)F,35,1,459,35
314.3,0.1,0.17,Training,N-butylpyridinium tetrafluoroborate,[B-](F)(F)(F)F.CCCC[N+]1=CC=CC=C1,C(C[n+]1ccccc1)CC.F[B-](F)(F)F,35,1,459,35
314.3,0.1,0.17,Training,N-butylpyridinium tetrafluoroborate,[B-](F)(F)(F)F.CCCC[N+]1=CC=CC=C1,C(CCC)[n+]1ccccc1.F[B-](F)(F)F,35,1,459,35
314.3,0.1,0.17,Training,N-butylpyridinium tetrafluoroborate,[B-](F)(F)(F)F.CCCC[N+]1=CC=CC=C1,F[B-](F)(F)F.c1cc[n+](cc1)CCCC,35,1,459,35
314.3,0.1,0.17,Training,N-butylpyridinium tetrafluoroborate,[B-](F)(F)(F)F.CCCC[N+]1=CC=CC=C1,F[B-](F)(F)F.c1c[n+](CCCC)ccc1,35,1,459,35
314.3,0.1,0.17,Training,N-butylpyridinium tetrafluoroborate,[B-](F)(F)(F)F.CCCC[N+]1=CC=CC=C1,[B-](F)(F)(F)F.c1ccc[n+](CCCC)c1,35,1,459,35
314.3,0.1,0.17,Training,N-butylpyridinium tetrafluoroborate,[B-](F)(F)(F)F.CCCC[N+]1=CC=CC=C1,C(CC)C[n+]1ccccc1.F[B-](F)(F)F,35,1,459,35
314.3,0.1,0.17,Training,N-butylpyridinium tetrafluoroborate,[B-](F)(F)(F)F.CCCC[N+]1=CC=CC=C1,C([n+]1ccccc1)CCC.F[B-](F)(F)F,35,1,459,35
314.3,0.1,0.17,Training,N-butylpyridinium tetrafluoroborate,[B-](F)(F)(F)F.CCCC[N+]1=CC=CC=C1,F[B-](F)(F)F.[n+]1(ccccc1)CCCC,35,1,459,35
314.3,10.0,0.171,Training,N-butylpyridinium tetrafluoroborate,[B-](F)(F)(F)F.CCCC[N+]1=CC=CC=C1,CCCC[n+]1ccccc1.F[B-](F)(F)F,35,100,460,35
314.3,10.0,0.171,Training,N-butylpyridinium tetrafluoroborate,[B-](F)(F)(F)F.CCCC[N+]1=CC=CC=C1,C(CC[n+]1ccccc1)C.F[B-](F)(F)F,35,100,460,35
314.3,10.0,0.171,Training,N-butylpyridinium tetrafluoroborate,[B-](F)(F)(F)F.CCCC[N+]1=CC=CC=C1,F[B-](F)(F)F.c1cc[n+](CCCC)cc1,35,100,460,35
314.3,10.0,0.171,Training,N-butylpyridinium tetrafluoroborate,[B-](F)(F)(F)F.CCCC[N+]1=CC=CC=C1,C(CC)C[n+]1ccccc1.F[B-](F)(F)F,35,100,460,35
314.3,10.0,0.171,Training,N-butylpyridinium tetrafluoroborate,[B-](F)(F)(F)F.CCCC[N+]1=CC=CC=C1,C([n+]1ccccc1)CCC.F[B-](F)(F)F,35,100,460,35
314.3,10.0,0.171,Training,N-butylpyridinium tetrafluoroborate,[B-](F)(F)(F)F.CCCC[N+]1=CC=CC=C1,F[B-](F)(F)F.c1cc[n+](cc1)CCCC,35,100,460,35
314.3,10.0,0.171,Training,N-butylpyridinium tetrafluoroborate,[B-](F)(F)(F)F.CCCC[N+]1=CC=CC=C1,F[B-](F)(F)F.c1c[n+](CCCC)ccc1,35,100,460,35
314.3,10.0,0.171,Training,N-butylpyridinium tetrafluoroborate,[B-](F)(F)(F)F.CCCC[N+]1=CC=CC=C1,CCCC[n+]1ccccc1.[B-](F)(F)(F)F,35,100,460,35
314.3,20.0,0.173,Training,N-butylpyridinium tetrafluoroborate,[B-](F)(F)(F)F.CCCC[N+]1=CC=CC=C1,CCCC[n+]1ccccc1.F[B-](F)(F)F,35,200,461,35
314.3,20.0,0.173,Training,N-butylpyridinium tetrafluoroborate,[B-](F)(F)(F)F.CCCC[N+]1=CC=CC=C1,C(C)CC[n+]1ccccc1.F[B-](F)(F)F,35,200,461,35
314.3,20.0,0.173,Training,N-butylpyridinium tetrafluoroborate,[B-](F)(F)(F)F.CCCC[N+]1=CC=CC=C1,C(CC)C[n+]1ccccc1.F[B-](F)(F)F,35,200,461,35
314.3,20.0,0.173,Training,N-butylpyridinium tetrafluoroborate,[B-](F)(F)(F)F.CCCC[N+]1=CC=CC=C1,F[B-](F)(F)F.c1[n+](cccc1)CCCC,35,200,461,35
314.3,20.0,0.173,Training,N-butylpyridinium tetrafluoroborate,[B-](F)(F)(F)F.CCCC[N+]1=CC=CC=C1,C(CC[n+]1ccccc1)C.F[B-](F)(F)F,35,200,461,35
314.3,20.0,0.173,Training,N-butylpyridinium tetrafluoroborate,[B-](F)(F)(F)F.CCCC[N+]1=CC=CC=C1,F[B-](F)(F)F.c1cc[n+](cc1)CCCC,35,200,461,35
314.3,20.0,0.173,Training,N-butylpyridinium tetrafluoroborate,[B-](F)(F)(F)F.CCCC[N+]1=CC=CC=C1,C([n+]1ccccc1)CCC.F[B-](F)(F)F,35,200,461,35
314.3,20.0,0.173,Training,N-butylpyridinium tetrafluoroborate,[B-](F)(F)(F)F.CCCC[N+]1=CC=CC=C1,[B-](F)(F)(F)F.c1ccc[n+](c1)CCCC,35,200,461,35
334.3,0.1,0.169,Training,N-butylpyridinium tetrafluoroborate,[B-](F)(F)(F)F.CCCC[N+]1=CC=CC=C1,CCCC[n+]1ccccc1.F[B-](F)(F)F,35,1,462,35
334.3,0.1,0.169,Training,N-butylpyridinium tetrafluoroborate,[B-](F)(F)(F)F.CCCC[N+]1=CC=CC=C1,F[B-](F)(F)F.c1ccc[n+](CCCC)c1,35,1,462,35
334.3,0.1,0.169,Training,N-butylpyridinium tetrafluoroborate,[B-](F)(F)(F)F.CCCC[N+]1=CC=CC=C1,C(C[n+]1ccccc1)CC.F[B-](F)(F)F,35,1,462,35
334.3,0.1,0.169,Training,N-butylpyridinium tetrafluoroborate,[B-](F)(F)(F)F.CCCC[N+]1=CC=CC=C1,[B-](F)(F)(F)F.[n+]1(ccccc1)CCCC,35,1,462,35
334.3,0.1,0.169,Training,N-butylpyridinium tetrafluoroborate,[B-](F)(F)(F)F.CCCC[N+]1=CC=CC=C1,[B-](F)(F)(F)F.[n+]1(CCCC)ccccc1,35,1,462,35
334.3,0.1,0.169,Training,N-butylpyridinium tetrafluoroborate,[B-](F)(F)(F)F.CCCC[N+]1=CC=CC=C1,F[B-](F)(F)F.c1c[n+](ccc1)CCCC,35,1,462,35
334.3,0.1,0.169,Training,N-butylpyridinium tetrafluoroborate,[B-](F)(F)(F)F.CCCC[N+]1=CC=CC=C1,F[B-](F)(F)F.c1cccc[n+]1CCCC,35,1,462,35
334.3,0.1,0.169,Training,N-butylpyridinium tetrafluoroborate,[B-](F)(F)(F)F.CCCC[N+]1=CC=CC=C1,[B-](F)(F)(F)F.c1c[n+](ccc1)CCCC,35,1,462,35
334.3,0.1,0.169,Training,N-butylpyridinium tetrafluoroborate,[B-](F)(F)(F)F.CCCC[N+]1=CC=CC=C1,F[B-](F)(F)F.[n+]1(ccccc1)CCCC,35,1,462,35
334.3,10.0,0.171,Training,N-butylpyridinium tetrafluoroborate,[B-](F)(F)(F)F.CCCC[N+]1=CC=CC=C1,CCCC[n+]1ccccc1.F[B-](F)(F)F,35,100,463,35
334.3,10.0,0.171,Training,N-butylpyridinium tetrafluoroborate,[B-](F)(F)(F)F.CCCC[N+]1=CC=CC=C1,F[B-](F)(F)F.c1c[n+](ccc1)CCCC,35,100,463,35
334.3,10.0,0.171,Training,N-butylpyridinium tetrafluoroborate,[B-](F)(F)(F)F.CCCC[N+]1=CC=CC=C1,F[B-](F)(F)F.[n+]1(ccccc1)CCCC,35,100,463,35
334.3,10.0,0.171,Training,N-butylpyridinium tetrafluoroborate,[B-](F)(F)(F)F.CCCC[N+]1=CC=CC=C1,F[B-](F)(F)F.c1[n+](cccc1)CCCC,35,100,463,35
334.3,10.0,0.171,Training,N-butylpyridinium tetrafluoroborate,[B-](F)(F)(F)F.CCCC[N+]1=CC=CC=C1,F[B-](F)(F)F.c1ccc[n+](c1)CCCC,35,100,463,35
334.3,10.0,0.171,Training,N-butylpyridinium tetrafluoroborate,[B-](F)(F)(F)F.CCCC[N+]1=CC=CC=C1,C(CCC)[n+]1ccccc1.F[B-](F)(F)F,35,100,463,35
334.3,10.0,0.171,Training,N-butylpyridinium tetrafluoroborate,[B-](F)(F)(F)F.CCCC[N+]1=CC=CC=C1,F[B-](F)(F)F.c1[n+](CCCC)cccc1,35,100,463,35
334.3,10.0,0.171,Training,N-butylpyridinium tetrafluoroborate,[B-](F)(F)(F)F.CCCC[N+]1=CC=CC=C1,F[B-](F)(F)F.c1c[n+](CCCC)ccc1,35,100,463,35
334.3,20.0,0.172,Training,N-butylpyridinium tetrafluoroborate,[B-](F)(F)(F)F.CCCC[N+]1=CC=CC=C1,CCCC[n+]1ccccc1.F[B-](F)(F)F,35,200,464,35
334.3,20.0,0.172,Training,N-butylpyridinium tetrafluoroborate,[B-](F)(F)(F)F.CCCC[N+]1=CC=CC=C1,F[B-](F)(F)F.c1ccc[n+](CCCC)c1,35,200,464,35
334.3,20.0,0.172,Training,N-butylpyridinium tetrafluoroborate,[B-](F)(F)(F)F.CCCC[N+]1=CC=CC=C1,C(CC)C[n+]1ccccc1.F[B-](F)(F)F,35,200,464,35
334.3,20.0,0.172,Training,N-butylpyridinium tetrafluoroborate,[B-](F)(F)(F)F.CCCC[N+]1=CC=CC=C1,F[B-](F)(F)F.[n+]1(CCCC)ccccc1,35,200,464,35
334.3,20.0,0.172,Training,N-butylpyridinium tetrafluoroborate,[B-](F)(F)(F)F.CCCC[N+]1=CC=CC=C1,[B-](F)(F)(F)F.c1[n+](cccc1)CCCC,35,200,464,35
334.3,20.0,0.172,Training,N-butylpyridinium tetrafluoroborate,[B-](F)(F)(F)F.CCCC[N+]1=CC=CC=C1,C(CC[n+]1ccccc1)C.F[B-](F)(F)F,35,200,464,35
334.3,20.0,0.172,Training,N-butylpyridinium tetrafluoroborate,[B-](F)(F)(F)F.CCCC[N+]1=CC=CC=C1,F[B-](F)(F)F.c1c[n+](CCCC)ccc1,35,200,464,35
334.3,20.0,0.172,Training,N-butylpyridinium tetrafluoroborate,[B-](F)(F)(F)F.CCCC[N+]1=CC=CC=C1,C(C[n+]1ccccc1)CC.F[B-](F)(F)F,35,200,464,35
334.3,20.0,0.172,Training,N-butylpyridinium tetrafluoroborate,[B-](F)(F)(F)F.CCCC[N+]1=CC=CC=C1,F[B-](F)(F)F.[n+]1(ccccc1)CCCC,35,200,464,35
294.2,0.1,0.163,Training,N-hexylpyridinium tetrafluoroborate,[B-](F)(F)(F)F.CCCCCC[N+]1=CC=CC=C1,CCCCCC[n+]1ccccc1.F[B-](F)(F)F,36,1,465,36
294.2,0.1,0.163,Training,N-hexylpyridinium tetrafluoroborate,[B-](F)(F)(F)F.CCCCCC[N+]1=CC=CC=C1,F[B-](F)(F)F.c1c[n+](ccc1)CCCCCC,36,1,465,36
294.2,0.1,0.163,Training,N-hexylpyridinium tetrafluoroborate,[B-](F)(F)(F)F.CCCCCC[N+]1=CC=CC=C1,CCCCCC[n+]1ccccc1.[B-](F)(F)(F)F,36,1,465,36
294.2,0.1,0.163,Training,N-hexylpyridinium tetrafluoroborate,[B-](F)(F)(F)F.CCCCCC[N+]1=CC=CC=C1,C(C)CCCC[n+]1ccccc1.[B-](F)(F)(F)F,36,1,465,36
294.2,0.1,0.163,Training,N-hexylpyridinium tetrafluoroborate,[B-](F)(F)(F)F.CCCCCC[N+]1=CC=CC=C1,F[B-](F)(F)F.[n+]1(CCCCCC)ccccc1,36,1,465,36
294.2,0.1,0.163,Training,N-hexylpyridinium tetrafluoroborate,[B-](F)(F)(F)F.CCCCCC[N+]1=CC=CC=C1,C([n+]1ccccc1)CCCCC.F[B-](F)(F)F,36,1,465,36
294.2,0.1,0.163,Training,N-hexylpyridinium tetrafluoroborate,[B-](F)(F)(F)F.CCCCCC[N+]1=CC=CC=C1,C(C[n+]1ccccc1)CCCC.F[B-](F)(F)F,36,1,465,36
294.2,0.1,0.163,Training,N-hexylpyridinium tetrafluoroborate,[B-](F)(F)(F)F.CCCCCC[N+]1=CC=CC=C1,F[B-](F)(F)F.c1ccc[n+](CCCCCC)c1,36,1,465,36
294.2,0.1,0.163,Training,N-hexylpyridinium tetrafluoroborate,[B-](F)(F)(F)F.CCCCCC[N+]1=CC=CC=C1,C(CCCC[n+]1ccccc1)C.[B-](F)(F)(F)F,36,1,465,36
294.2,0.1,0.163,Training,N-hexylpyridinium tetrafluoroborate,[B-](F)(F)(F)F.CCCCCC[N+]1=CC=CC=C1,[B-](F)(F)(F)F.[n+]1(ccccc1)CCCCCC,36,1,465,36
294.2,10.0,0.165,Training,N-hexylpyridinium tetrafluoroborate,[B-](F)(F)(F)F.CCCCCC[N+]1=CC=CC=C1,CCCCCC[n+]1ccccc1.F[B-](F)(F)F,36,100,466,36
294.2,10.0,0.165,Training,N-hexylpyridinium tetrafluoroborate,[B-](F)(F)(F)F.CCCCCC[N+]1=CC=CC=C1,C([n+]1ccccc1)CCCCC.F[B-](F)(F)F,36,100,466,36
294.2,10.0,0.165,Training,N-hexylpyridinium tetrafluoroborate,[B-](F)(F)(F)F.CCCCCC[N+]1=CC=CC=C1,F[B-](F)(F)F.c1cccc[n+]1CCCCCC,36,100,466,36