T/K,P/MPa,TC/W m-1 K-1,Data type,Name,SMILES,Normalized SMILES,index,P/bar,RANDOM,IL
283.15,30.0,0.1512,Training,1-butyl-3-methylimidazolium trifluoromethanesulfonate,CCCCN1C=C[N+](=C1)C.C(F)(F)(F)S(=O)(=O)[O-],CCCCn1cc[n+](C)c1.S(C(F)(F)F)([O-])(=O)=O,6,300,121,6
283.15,30.0,0.1512,Training,1-butyl-3-methylimidazolium trifluoromethanesulfonate,CCCCN1C=C[N+](=C1)C.C(F)(F)(F)S(=O)(=O)[O-],C[n+]1cn(CCCC)cc1.S(=O)(=O)([O-])C(F)(F)F,6,300,121,6
283.15,30.0,0.1512,Training,1-butyl-3-methylimidazolium trifluoromethanesulfonate,CCCCN1C=C[N+](=C1)C.C(F)(F)(F)S(=O)(=O)[O-],C(n1c[n+](C)cc1)CCC.O=S([O-])(=O)C(F)(F)F,6,300,121,6
283.15,40.0,0.1539,Training,1-butyl-3-methylimidazolium trifluoromethanesulfonate,CCCCN1C=C[N+](=C1)C.C(F)(F)(F)S(=O)(=O)[O-],CCCCn1cc[n+](C)c1.O=S(=O)([O-])C(F)(F)F,6,400,122,6
283.15,40.0,0.1539,Training,1-butyl-3-methylimidazolium trifluoromethanesulfonate,CCCCN1C=C[N+](=C1)C.C(F)(F)(F)S(=O)(=O)[O-],O=S(=O)(C(F)(F)F)[O-].c1cn(c[n+]1C)CCCC,6,400,122,6
283.15,40.0,0.1539,Training,1-butyl-3-methylimidazolium trifluoromethanesulfonate,CCCCN1C=C[N+](=C1)C.C(F)(F)(F)S(=O)(=O)[O-],CCCCn1c[n+](C)cc1.[O-]S(=O)(C(F)(F)F)=O,6,400,122,6
283.15,40.0,0.1539,Training,1-butyl-3-methylimidazolium trifluoromethanesulfonate,CCCCN1C=C[N+](=C1)C.C(F)(F)(F)S(=O)(=O)[O-],O=S([O-])(C(F)(F)F)=O.c1cn(CCCC)c[n+]1C,6,400,122,6
283.15,40.0,0.1539,Training,1-butyl-3-methylimidazolium trifluoromethanesulfonate,CCCCN1C=C[N+](=C1)C.C(F)(F)(F)S(=O)(=O)[O-],[O-]S(=O)(=O)C(F)(F)F.n1(CCCC)c[n+](cc1)C,6,400,122,6
283.15,40.0,0.1539,Training,1-butyl-3-methylimidazolium trifluoromethanesulfonate,CCCCN1C=C[N+](=C1)C.C(F)(F)(F)S(=O)(=O)[O-],C[n+]1cn(CCCC)cc1.FC(F)(F)S(=O)([O-])=O,6,400,122,6
283.15,40.0,0.1539,Training,1-butyl-3-methylimidazolium trifluoromethanesulfonate,CCCCN1C=C[N+](=C1)C.C(F)(F)(F)S(=O)(=O)[O-],FC(S([O-])(=O)=O)(F)F.c1[n+](C)cn(c1)CCCC,6,400,122,6
283.15,40.0,0.1539,Training,1-butyl-3-methylimidazolium trifluoromethanesulfonate,CCCCN1C=C[N+](=C1)C.C(F)(F)(F)S(=O)(=O)[O-],C[n+]1ccn(CCCC)c1.[O-]S(=O)(C(F)(F)F)=O,6,400,122,6
283.15,40.0,0.1539,Training,1-butyl-3-methylimidazolium trifluoromethanesulfonate,CCCCN1C=C[N+](=C1)C.C(F)(F)(F)S(=O)(=O)[O-],CCCCn1cc[n+](c1)C.S([O-])(=O)(C(F)(F)F)=O,6,400,122,6
283.15,40.0,0.1539,Training,1-butyl-3-methylimidazolium trifluoromethanesulfonate,CCCCN1C=C[N+](=C1)C.C(F)(F)(F)S(=O)(=O)[O-],FC(F)(S(=O)(=O)[O-])F.c1[n+](C)ccn1CCCC,6,400,122,6
283.15,50.0,0.1557,Training,1-butyl-3-methylimidazolium trifluoromethanesulfonate,CCCCN1C=C[N+](=C1)C.C(F)(F)(F)S(=O)(=O)[O-],CCCCn1cc[n+](C)c1.O=S(=O)([O-])C(F)(F)F,6,500,123,6
283.15,50.0,0.1557,Training,1-butyl-3-methylimidazolium trifluoromethanesulfonate,CCCCN1C=C[N+](=C1)C.C(F)(F)(F)S(=O)(=O)[O-],O=S(C(F)(F)F)([O-])=O.c1cn(CCCC)c[n+]1C,6,500,123,6
283.15,50.0,0.1557,Training,1-butyl-3-methylimidazolium trifluoromethanesulfonate,CCCCN1C=C[N+](=C1)C.C(F)(F)(F)S(=O)(=O)[O-],FC(F)(S([O-])(=O)=O)F.n1(CCCC)c[n+](C)cc1,6,500,123,6
283.15,50.0,0.1557,Training,1-butyl-3-methylimidazolium trifluoromethanesulfonate,CCCCN1C=C[N+](=C1)C.C(F)(F)(F)S(=O)(=O)[O-],C[n+]1ccn(c1)CCCC.O=S([O-])(C(F)(F)F)=O,6,500,123,6
283.15,50.0,0.1557,Training,1-butyl-3-methylimidazolium trifluoromethanesulfonate,CCCCN1C=C[N+](=C1)C.C(F)(F)(F)S(=O)(=O)[O-],O=S(=O)(C(F)(F)F)[O-].[n+]1(ccn(c1)CCCC)C,6,500,123,6
283.15,50.0,0.1557,Training,1-butyl-3-methylimidazolium trifluoromethanesulfonate,CCCCN1C=C[N+](=C1)C.C(F)(F)(F)S(=O)(=O)[O-],C(CC)Cn1c[n+](C)cc1.S(=O)(C(F)(F)F)([O-])=O,6,500,123,6
283.15,50.0,0.1557,Training,1-butyl-3-methylimidazolium trifluoromethanesulfonate,CCCCN1C=C[N+](=C1)C.C(F)(F)(F)S(=O)(=O)[O-],O=S(=O)(C(F)(F)F)[O-].n1(CCCC)cc[n+](c1)C,6,500,123,6
283.15,50.0,0.1557,Training,1-butyl-3-methylimidazolium trifluoromethanesulfonate,CCCCN1C=C[N+](=C1)C.C(F)(F)(F)S(=O)(=O)[O-],FC(F)(F)S(=O)([O-])=O.[n+]1(C)ccn(CCCC)c1,6,500,123,6
283.15,50.0,0.1557,Training,1-butyl-3-methylimidazolium trifluoromethanesulfonate,CCCCN1C=C[N+](=C1)C.C(F)(F)(F)S(=O)(=O)[O-],CCCCn1c[n+](cc1)C.S(C(F)(F)F)(=O)([O-])=O,6,500,123,6
283.15,50.0,0.1557,Training,1-butyl-3-methylimidazolium trifluoromethanesulfonate,CCCCN1C=C[N+](=C1)C.C(F)(F)(F)S(=O)(=O)[O-],[O-]S(=O)(=O)C(F)(F)F.c1n(CCCC)c[n+](C)c1,6,500,123,6
283.15,60.0,0.1585,Testing,1-butyl-3-methylimidazolium trifluoromethanesulfonate,CCCCN1C=C[N+](=C1)C.C(F)(F)(F)S(=O)(=O)[O-],CCCCn1cc[n+](C)c1.O=S(=O)([O-])C(F)(F)F,6,600,124,6
283.15,60.0,0.1585,Testing,1-butyl-3-methylimidazolium trifluoromethanesulfonate,CCCCN1C=C[N+](=C1)C.C(F)(F)(F)S(=O)(=O)[O-],O=S(C(F)(F)F)(=O)[O-].c1n(CCCC)cc[n+]1C,6,600,124,6
283.15,60.0,0.1585,Testing,1-butyl-3-methylimidazolium trifluoromethanesulfonate,CCCCN1C=C[N+](=C1)C.C(F)(F)(F)S(=O)(=O)[O-],S([O-])(C(F)(F)F)(=O)=O.[n+]1(ccn(c1)CCCC)C,6,600,124,6
283.15,60.0,0.1585,Testing,1-butyl-3-methylimidazolium trifluoromethanesulfonate,CCCCN1C=C[N+](=C1)C.C(F)(F)(F)S(=O)(=O)[O-],C(Cn1c[n+](C)cc1)CC.O=S([O-])(C(F)(F)F)=O,6,600,124,6
283.15,60.0,0.1585,Testing,1-butyl-3-methylimidazolium trifluoromethanesulfonate,CCCCN1C=C[N+](=C1)C.C(F)(F)(F)S(=O)(=O)[O-],C(C)CCn1cc[n+](c1)C.O=S(C(F)(F)F)(=O)[O-],6,600,124,6
283.15,60.0,0.1585,Testing,1-butyl-3-methylimidazolium trifluoromethanesulfonate,CCCCN1C=C[N+](=C1)C.C(F)(F)(F)S(=O)(=O)[O-],S(=O)([O-])(=O)C(F)(F)F.c1[n+](ccn1CCCC)C,6,600,124,6
283.15,60.0,0.1585,Testing,1-butyl-3-methylimidazolium trifluoromethanesulfonate,CCCCN1C=C[N+](=C1)C.C(F)(F)(F)S(=O)(=O)[O-],C(CCC)n1c[n+](cc1)C.O=S([O-])(C(F)(F)F)=O,6,600,124,6
283.15,60.0,0.1585,Testing,1-butyl-3-methylimidazolium trifluoromethanesulfonate,CCCCN1C=C[N+](=C1)C.C(F)(F)(F)S(=O)(=O)[O-],C(CC)Cn1c[n+](cc1)C.C(F)(F)(F)S(=O)([O-])=O,6,600,124,6
283.15,60.0,0.1585,Testing,1-butyl-3-methylimidazolium trifluoromethanesulfonate,CCCCN1C=C[N+](=C1)C.C(F)(F)(F)S(=O)(=O)[O-],C[n+]1cn(cc1)CCCC.FC(S(=O)(=O)[O-])(F)F,6,600,124,6
283.15,65.0,0.1551,Training,1-butyl-3-methylimidazolium trifluoromethanesulfonate,CCCCN1C=C[N+](=C1)C.C(F)(F)(F)S(=O)(=O)[O-],CCCCn1cc[n+](C)c1.O=S(=O)([O-])C(F)(F)F,6,650,125,6
283.15,65.0,0.1551,Training,1-butyl-3-methylimidazolium trifluoromethanesulfonate,CCCCN1C=C[N+](=C1)C.C(F)(F)(F)S(=O)(=O)[O-],C(C)CCn1cc[n+](C)c1.O=S([O-])(C(F)(F)F)=O,6,650,125,6
283.15,65.0,0.1551,Training,1-butyl-3-methylimidazolium trifluoromethanesulfonate,CCCCN1C=C[N+](=C1)C.C(F)(F)(F)S(=O)(=O)[O-],FC(F)(S([O-])(=O)=O)F.c1[n+](C)cn(c1)CCCC,6,650,125,6
283.15,65.0,0.1551,Training,1-butyl-3-methylimidazolium trifluoromethanesulfonate,CCCCN1C=C[N+](=C1)C.C(F)(F)(F)S(=O)(=O)[O-],C(C)CCn1cc[n+](c1)C.FC(F)(S(=O)([O-])=O)F,6,650,125,6
283.15,65.0,0.1551,Training,1-butyl-3-methylimidazolium trifluoromethanesulfonate,CCCCN1C=C[N+](=C1)C.C(F)(F)(F)S(=O)(=O)[O-],C(Cn1cc[n+](C)c1)CC.C(S([O-])(=O)=O)(F)(F)F,6,650,125,6
283.15,65.0,0.1551,Training,1-butyl-3-methylimidazolium trifluoromethanesulfonate,CCCCN1C=C[N+](=C1)C.C(F)(F)(F)S(=O)(=O)[O-],C[n+]1ccn(c1)CCCC.S(C(F)(F)F)(=O)(=O)[O-],6,650,125,6
283.15,65.0,0.1551,Training,1-butyl-3-methylimidazolium trifluoromethanesulfonate,CCCCN1C=C[N+](=C1)C.C(F)(F)(F)S(=O)(=O)[O-],C(Cn1cc[n+](c1)C)CC.O=S(=O)(C(F)(F)F)[O-],6,650,125,6
283.15,65.0,0.1551,Training,1-butyl-3-methylimidazolium trifluoromethanesulfonate,CCCCN1C=C[N+](=C1)C.C(F)(F)(F)S(=O)(=O)[O-],C[n+]1ccn(c1)CCCC.[O-]S(C(F)(F)F)(=O)=O,6,650,125,6
283.15,65.0,0.1551,Training,1-butyl-3-methylimidazolium trifluoromethanesulfonate,CCCCN1C=C[N+](=C1)C.C(F)(F)(F)S(=O)(=O)[O-],CCCCn1c[n+](C)cc1.S(C(F)(F)F)(=O)(=O)[O-],6,650,125,6
283.15,65.0,0.1551,Training,1-butyl-3-methylimidazolium trifluoromethanesulfonate,CCCCN1C=C[N+](=C1)C.C(F)(F)(F)S(=O)(=O)[O-],C(F)(F)(F)S([O-])(=O)=O.C[n+]1ccn(c1)CCCC,6,650,125,6
293.15,0.1,0.1414,Training,1-butyl-3-methylimidazolium trifluoromethanesulfonate,CCCCN1C=C[N+](=C1)C.C(F)(F)(F)S(=O)(=O)[O-],CCCCn1cc[n+](C)c1.O=S(=O)([O-])C(F)(F)F,6,1,126,6
293.15,0.1,0.1414,Training,1-butyl-3-methylimidazolium trifluoromethanesulfonate,CCCCN1C=C[N+](=C1)C.C(F)(F)(F)S(=O)(=O)[O-],C(CC)Cn1c[n+](C)cc1.C(F)(F)(F)S([O-])(=O)=O,6,1,126,6
293.15,0.1,0.1414,Training,1-butyl-3-methylimidazolium trifluoromethanesulfonate,CCCCN1C=C[N+](=C1)C.C(F)(F)(F)S(=O)(=O)[O-],C(Cn1c[n+](cc1)C)CC.C(S(=O)(=O)[O-])(F)(F)F,6,1,126,6
293.15,0.1,0.1414,Training,1-butyl-3-methylimidazolium trifluoromethanesulfonate,CCCCN1C=C[N+](=C1)C.C(F)(F)(F)S(=O)(=O)[O-],C(n1c[n+](C)cc1)CCC.S(=O)(=O)(C(F)(F)F)[O-],6,1,126,6
293.15,0.1,0.1414,Training,1-butyl-3-methylimidazolium trifluoromethanesulfonate,CCCCN1C=C[N+](=C1)C.C(F)(F)(F)S(=O)(=O)[O-],CCCCn1cc[n+](C)c1.O=S([O-])(=O)C(F)(F)F,6,1,126,6
293.15,0.1,0.1414,Training,1-butyl-3-methylimidazolium trifluoromethanesulfonate,CCCCN1C=C[N+](=C1)C.C(F)(F)(F)S(=O)(=O)[O-],FC(F)(S(=O)([O-])=O)F.[n+]1(ccn(c1)CCCC)C,6,1,126,6
293.15,0.1,0.1414,Training,1-butyl-3-methylimidazolium trifluoromethanesulfonate,CCCCN1C=C[N+](=C1)C.C(F)(F)(F)S(=O)(=O)[O-],CCCCn1cc[n+](C)c1.FC(F)(F)S(=O)(=O)[O-],6,1,126,6
293.15,0.1,0.1414,Training,1-butyl-3-methylimidazolium trifluoromethanesulfonate,CCCCN1C=C[N+](=C1)C.C(F)(F)(F)S(=O)(=O)[O-],C(Cn1cc[n+](C)c1)CC.FC(F)(F)S([O-])(=O)=O,6,1,126,6
293.15,0.1,0.1414,Training,1-butyl-3-methylimidazolium trifluoromethanesulfonate,CCCCN1C=C[N+](=C1)C.C(F)(F)(F)S(=O)(=O)[O-],O=S(C(F)(F)F)([O-])=O.c1n(c[n+](c1)C)CCCC,6,1,126,6
293.15,0.1,0.1414,Training,1-butyl-3-methylimidazolium trifluoromethanesulfonate,CCCCN1C=C[N+](=C1)C.C(F)(F)(F)S(=O)(=O)[O-],C(Cn1c[n+](cc1)C)CC.FC(F)(S(=O)(=O)[O-])F,6,1,126,6
293.15,5.0,0.1431,Training,1-butyl-3-methylimidazolium trifluoromethanesulfonate,CCCCN1C=C[N+](=C1)C.C(F)(F)(F)S(=O)(=O)[O-],CCCCn1cc[n+](C)c1.O=S(=O)([O-])C(F)(F)F,6,50,127,6
293.15,5.0,0.1431,Training,1-butyl-3-methylimidazolium trifluoromethanesulfonate,CCCCN1C=C[N+](=C1)C.C(F)(F)(F)S(=O)(=O)[O-],C(CC)Cn1cc[n+](C)c1.C(S([O-])(=O)=O)(F)(F)F,6,50,127,6
293.15,5.0,0.1431,Training,1-butyl-3-methylimidazolium trifluoromethanesulfonate,CCCCN1C=C[N+](=C1)C.C(F)(F)(F)S(=O)(=O)[O-],[O-]S(=O)(=O)C(F)(F)F.n1(c[n+](cc1)C)CCCC,6,50,127,6
293.15,5.0,0.1431,Training,1-butyl-3-methylimidazolium trifluoromethanesulfonate,CCCCN1C=C[N+](=C1)C.C(F)(F)(F)S(=O)(=O)[O-],FC(F)(F)S(=O)([O-])=O.c1cn(c[n+]1C)CCCC,6,50,127,6
293.15,5.0,0.1431,Training,1-butyl-3-methylimidazolium trifluoromethanesulfonate,CCCCN1C=C[N+](=C1)C.C(F)(F)(F)S(=O)(=O)[O-],O=S(C(F)(F)F)(=O)[O-].[n+]1(C)ccn(c1)CCCC,6,50,127,6
293.15,5.0,0.1431,Training,1-butyl-3-methylimidazolium trifluoromethanesulfonate,CCCCN1C=C[N+](=C1)C.C(F)(F)(F)S(=O)(=O)[O-],O=S(C(F)(F)F)(=O)[O-].n1(cc[n+](C)c1)CCCC,6,50,127,6
293.15,5.0,0.1431,Training,1-butyl-3-methylimidazolium trifluoromethanesulfonate,CCCCN1C=C[N+](=C1)C.C(F)(F)(F)S(=O)(=O)[O-],C[n+]1ccn(c1)CCCC.FC(S(=O)([O-])=O)(F)F,6,50,127,6
293.15,5.0,0.1431,Training,1-butyl-3-methylimidazolium trifluoromethanesulfonate,CCCCN1C=C[N+](=C1)C.C(F)(F)(F)S(=O)(=O)[O-],C(F)(F)(F)S(=O)(=O)[O-].[n+]1(cn(CCCC)cc1)C,6,50,127,6
293.15,5.0,0.1431,Training,1-butyl-3-methylimidazolium trifluoromethanesulfonate,CCCCN1C=C[N+](=C1)C.C(F)(F)(F)S(=O)(=O)[O-],FC(F)(F)S(=O)([O-])=O.n1(cc[n+](C)c1)CCCC,6,50,127,6
293.15,5.0,0.1431,Training,1-butyl-3-methylimidazolium trifluoromethanesulfonate,CCCCN1C=C[N+](=C1)C.C(F)(F)(F)S(=O)(=O)[O-],C[n+]1cn(CCCC)cc1.S(=O)(C(F)(F)F)(=O)[O-],6,50,127,6
293.15,10.0,0.1456,Training,1-butyl-3-methylimidazolium trifluoromethanesulfonate,CCCCN1C=C[N+](=C1)C.C(F)(F)(F)S(=O)(=O)[O-],CCCCn1cc[n+](C)c1.O=S(=O)([O-])C(F)(F)F,6,100,128,6
293.15,10.0,0.1456,Training,1-butyl-3-methylimidazolium trifluoromethanesulfonate,CCCCN1C=C[N+](=C1)C.C(F)(F)(F)S(=O)(=O)[O-],C(C)CCn1c[n+](cc1)C.C(F)(F)(F)S(=O)(=O)[O-],6,100,128,6
293.15,10.0,0.1456,Training,1-butyl-3-methylimidazolium trifluoromethanesulfonate,CCCCN1C=C[N+](=C1)C.C(F)(F)(F)S(=O)(=O)[O-],S(=O)(C(F)(F)F)(=O)[O-].c1cn(c[n+]1C)CCCC,6,100,128,6
293.15,10.0,0.1456,Training,1-butyl-3-methylimidazolium trifluoromethanesulfonate,CCCCN1C=C[N+](=C1)C.C(F)(F)(F)S(=O)(=O)[O-],C[n+]1ccn(c1)CCCC.FC(S([O-])(=O)=O)(F)F,6,100,128,6
293.15,10.0,0.1456,Training,1-butyl-3-methylimidazolium trifluoromethanesulfonate,CCCCN1C=C[N+](=C1)C.C(F)(F)(F)S(=O)(=O)[O-],[O-]S(=O)(=O)C(F)(F)F.n1(c[n+](C)cc1)CCCC,6,100,128,6
293.15,10.0,0.1456,Training,1-butyl-3-methylimidazolium trifluoromethanesulfonate,CCCCN1C=C[N+](=C1)C.C(F)(F)(F)S(=O)(=O)[O-],FC(F)(S(=O)(=O)[O-])F.c1n(CCCC)cc[n+]1C,6,100,128,6
293.15,10.0,0.1456,Training,1-butyl-3-methylimidazolium trifluoromethanesulfonate,CCCCN1C=C[N+](=C1)C.C(F)(F)(F)S(=O)(=O)[O-],O=S(C(F)(F)F)(=O)[O-].c1n(cc[n+]1C)CCCC,6,100,128,6
293.15,10.0,0.1456,Training,1-butyl-3-methylimidazolium trifluoromethanesulfonate,CCCCN1C=C[N+](=C1)C.C(F)(F)(F)S(=O)(=O)[O-],C[n+]1cn(cc1)CCCC.FC(S(=O)(=O)[O-])(F)F,6,100,128,6
293.15,10.0,0.1456,Training,1-butyl-3-methylimidazolium trifluoromethanesulfonate,CCCCN1C=C[N+](=C1)C.C(F)(F)(F)S(=O)(=O)[O-],O=S([O-])(=O)C(F)(F)F.c1[n+](C)cn(CCCC)c1,6,100,128,6
293.15,10.0,0.1456,Training,1-butyl-3-methylimidazolium trifluoromethanesulfonate,CCCCN1C=C[N+](=C1)C.C(F)(F)(F)S(=O)(=O)[O-],C(CC)Cn1cc[n+](c1)C.O=S(=O)(C(F)(F)F)[O-],6,100,128,6
293.15,20.0,0.1486,Training,1-butyl-3-methylimidazolium trifluoromethanesulfonate,CCCCN1C=C[N+](=C1)C.C(F)(F)(F)S(=O)(=O)[O-],CCCCn1cc[n+](C)c1.O=S(=O)([O-])C(F)(F)F,6,200,129,6
293.15,20.0,0.1486,Training,1-butyl-3-methylimidazolium trifluoromethanesulfonate,CCCCN1C=C[N+](=C1)C.C(F)(F)(F)S(=O)(=O)[O-],CCCCn1cc[n+](C)c1.FC(F)(F)S(=O)([O-])=O,6,200,129,6
293.15,20.0,0.1486,Training,1-butyl-3-methylimidazolium trifluoromethanesulfonate,CCCCN1C=C[N+](=C1)C.C(F)(F)(F)S(=O)(=O)[O-],C(CCC)n1c[n+](cc1)C.FC(F)(F)S(=O)([O-])=O,6,200,129,6
293.15,20.0,0.1486,Training,1-butyl-3-methylimidazolium trifluoromethanesulfonate,CCCCN1C=C[N+](=C1)C.C(F)(F)(F)S(=O)(=O)[O-],O=S(=O)([O-])C(F)(F)F.c1c[n+](cn1CCCC)C,6,200,129,6
293.15,20.0,0.1486,Training,1-butyl-3-methylimidazolium trifluoromethanesulfonate,CCCCN1C=C[N+](=C1)C.C(F)(F)(F)S(=O)(=O)[O-],C(C)CCn1cc[n+](C)c1.[O-]S(C(F)(F)F)(=O)=O,6,200,129,6
293.15,20.0,0.1486,Training,1-butyl-3-methylimidazolium trifluoromethanesulfonate,CCCCN1C=C[N+](=C1)C.C(F)(F)(F)S(=O)(=O)[O-],O=S(=O)([O-])C(F)(F)F.c1cn(CCCC)c[n+]1C,6,200,129,6
293.15,20.0,0.1486,Training,1-butyl-3-methylimidazolium trifluoromethanesulfonate,CCCCN1C=C[N+](=C1)C.C(F)(F)(F)S(=O)(=O)[O-],FC(F)(S([O-])(=O)=O)F.c1n(cc[n+]1C)CCCC,6,200,129,6
293.15,20.0,0.1486,Training,1-butyl-3-methylimidazolium trifluoromethanesulfonate,CCCCN1C=C[N+](=C1)C.C(F)(F)(F)S(=O)(=O)[O-],C(C)CCn1c[n+](C)cc1.C(S(=O)(=O)[O-])(F)(F)F,6,200,129,6
293.15,20.0,0.1486,Training,1-butyl-3-methylimidazolium trifluoromethanesulfonate,CCCCN1C=C[N+](=C1)C.C(F)(F)(F)S(=O)(=O)[O-],C(CCn1cc[n+](c1)C)C.O=S(C(F)(F)F)(=O)[O-],6,200,129,6
293.15,20.0,0.1486,Training,1-butyl-3-methylimidazolium trifluoromethanesulfonate,CCCCN1C=C[N+](=C1)C.C(F)(F)(F)S(=O)(=O)[O-],[O-]S(C(F)(F)F)(=O)=O.c1[n+](C)cn(CCCC)c1,6,200,129,6
293.15,30.0,0.1513,Training,1-butyl-3-methylimidazolium trifluoromethanesulfonate,CCCCN1C=C[N+](=C1)C.C(F)(F)(F)S(=O)(=O)[O-],CCCCn1cc[n+](C)c1.O=S(=O)([O-])C(F)(F)F,6,300,130,6
293.15,30.0,0.1513,Training,1-butyl-3-methylimidazolium trifluoromethanesulfonate,CCCCN1C=C[N+](=C1)C.C(F)(F)(F)S(=O)(=O)[O-],[O-]S(=O)(C(F)(F)F)=O.[n+]1(C)cn(cc1)CCCC,6,300,130,6
293.15,30.0,0.1513,Training,1-butyl-3-methylimidazolium trifluoromethanesulfonate,CCCCN1C=C[N+](=C1)C.C(F)(F)(F)S(=O)(=O)[O-],C(C)CCn1cc[n+](c1)C.FC(F)(F)S(=O)(=O)[O-],6,300,130,6
293.15,30.0,0.1513,Training,1-butyl-3-methylimidazolium trifluoromethanesulfonate,CCCCN1C=C[N+](=C1)C.C(F)(F)(F)S(=O)(=O)[O-],FC(S(=O)([O-])=O)(F)F.c1cn(c[n+]1C)CCCC,6,300,130,6
293.15,30.0,0.1513,Training,1-butyl-3-methylimidazolium trifluoromethanesulfonate,CCCCN1C=C[N+](=C1)C.C(F)(F)(F)S(=O)(=O)[O-],C(CC)Cn1cc[n+](c1)C.FC(F)(S(=O)([O-])=O)F,6,300,130,6
293.15,30.0,0.1513,Training,1-butyl-3-methylimidazolium trifluoromethanesulfonate,CCCCN1C=C[N+](=C1)C.C(F)(F)(F)S(=O)(=O)[O-],C(F)(F)(S([O-])(=O)=O)F.c1n(CCCC)cc[n+]1C,6,300,130,6
293.15,30.0,0.1513,Training,1-butyl-3-methylimidazolium trifluoromethanesulfonate,CCCCN1C=C[N+](=C1)C.C(F)(F)(F)S(=O)(=O)[O-],[O-]S(C(F)(F)F)(=O)=O.c1c[n+](C)cn1CCCC,6,300,130,6
293.15,30.0,0.1513,Training,1-butyl-3-methylimidazolium trifluoromethanesulfonate,CCCCN1C=C[N+](=C1)C.C(F)(F)(F)S(=O)(=O)[O-],C(CCC)n1c[n+](C)cc1.O=S(C(F)(F)F)([O-])=O,6,300,130,6
293.15,30.0,0.1513,Training,1-butyl-3-methylimidazolium trifluoromethanesulfonate,CCCCN1C=C[N+](=C1)C.C(F)(F)(F)S(=O)(=O)[O-],S([O-])(C(F)(F)F)(=O)=O.n1(CCCC)c[n+](C)cc1,6,300,130,6
293.15,30.0,0.1513,Training,1-butyl-3-methylimidazolium trifluoromethanesulfonate,CCCCN1C=C[N+](=C1)C.C(F)(F)(F)S(=O)(=O)[O-],FC(F)(S([O-])(=O)=O)F.c1c[n+](cn1CCCC)C,6,300,130,6
293.15,40.0,0.1515,Training,1-butyl-3-methylimidazolium trifluoromethanesulfonate,CCCCN1C=C[N+](=C1)C.C(F)(F)(F)S(=O)(=O)[O-],CCCCn1cc[n+](C)c1.O=S(=O)([O-])C(F)(F)F,6,400,131,6
293.15,40.0,0.1515,Training,1-butyl-3-methylimidazolium trifluoromethanesulfonate,CCCCN1C=C[N+](=C1)C.C(F)(F)(F)S(=O)(=O)[O-],C(F)(S(=O)([O-])=O)(F)F.C(n1c[n+](cc1)C)CCC,6,400,131,6
293.15,40.0,0.1515,Training,1-butyl-3-methylimidazolium trifluoromethanesulfonate,CCCCN1C=C[N+](=C1)C.C(F)(F)(F)S(=O)(=O)[O-],C(S(=O)(=O)[O-])(F)(F)F.C[n+]1cn(cc1)CCCC,6,400,131,6
293.15,40.0,0.1515,Training,1-butyl-3-methylimidazolium trifluoromethanesulfonate,CCCCN1C=C[N+](=C1)C.C(F)(F)(F)S(=O)(=O)[O-],O=S(=O)(C(F)(F)F)[O-].[n+]1(C)cn(cc1)CCCC,6,400,131,6
293.15,40.0,0.1515,Training,1-butyl-3-methylimidazolium trifluoromethanesulfonate,CCCCN1C=C[N+](=C1)C.C(F)(F)(F)S(=O)(=O)[O-],[O-]S(C(F)(F)F)(=O)=O.c1n(CCCC)c[n+](C)c1,6,400,131,6
293.15,40.0,0.1515,Training,1-butyl-3-methylimidazolium trifluoromethanesulfonate,CCCCN1C=C[N+](=C1)C.C(F)(F)(F)S(=O)(=O)[O-],S(C(F)(F)F)([O-])(=O)=O.n1(CCCC)cc[n+](c1)C,6,400,131,6
293.15,40.0,0.1515,Training,1-butyl-3-methylimidazolium trifluoromethanesulfonate,CCCCN1C=C[N+](=C1)C.C(F)(F)(F)S(=O)(=O)[O-],[O-]S(C(F)(F)F)(=O)=O.n1(cc[n+](c1)C)CCCC,6,400,131,6
293.15,40.0,0.1515,Training,1-butyl-3-methylimidazolium trifluoromethanesulfonate,CCCCN1C=C[N+](=C1)C.C(F)(F)(F)S(=O)(=O)[O-],FC(F)(S([O-])(=O)=O)F.c1n(CCCC)cc[n+]1C,6,400,131,6
293.15,40.0,0.1515,Training,1-butyl-3-methylimidazolium trifluoromethanesulfonate,CCCCN1C=C[N+](=C1)C.C(F)(F)(F)S(=O)(=O)[O-],FC(S([O-])(=O)=O)(F)F.[n+]1(C)cn(cc1)CCCC,6,400,131,6
293.15,40.0,0.1515,Training,1-butyl-3-methylimidazolium trifluoromethanesulfonate,CCCCN1C=C[N+](=C1)C.C(F)(F)(F)S(=O)(=O)[O-],FC(F)(S(=O)([O-])=O)F.c1[n+](C)ccn1CCCC,6,400,131,6
293.15,50.0,0.1534,Training,1-butyl-3-methylimidazolium trifluoromethanesulfonate,CCCCN1C=C[N+](=C1)C.C(F)(F)(F)S(=O)(=O)[O-],CCCCn1cc[n+](C)c1.O=S(=O)([O-])C(F)(F)F,6,500,132,6
293.15,50.0,0.1534,Training,1-butyl-3-methylimidazolium trifluoromethanesulfonate,CCCCN1C=C[N+](=C1)C.C(F)(F)(F)S(=O)(=O)[O-],C(Cn1c[n+](C)cc1)CC.FC(S(=O)([O-])=O)(F)F,6,500,132,6
293.15,50.0,0.1534,Training,1-butyl-3-methylimidazolium trifluoromethanesulfonate,CCCCN1C=C[N+](=C1)C.C(F)(F)(F)S(=O)(=O)[O-],C(CCC)n1c[n+](C)cc1.FC(F)(S(=O)([O-])=O)F,6,500,132,6
293.15,50.0,0.1534,Training,1-butyl-3-methylimidazolium trifluoromethanesulfonate,CCCCN1C=C[N+](=C1)C.C(F)(F)(F)S(=O)(=O)[O-],FC(S(=O)(=O)[O-])(F)F.c1c[n+](C)cn1CCCC,6,500,132,6
293.15,50.0,0.1534,Training,1-butyl-3-methylimidazolium trifluoromethanesulfonate,CCCCN1C=C[N+](=C1)C.C(F)(F)(F)S(=O)(=O)[O-],S(=O)([O-])(C(F)(F)F)=O.[n+]1(cn(CCCC)cc1)C,6,500,132,6
293.15,50.0,0.1534,Training,1-butyl-3-methylimidazolium trifluoromethanesulfonate,CCCCN1C=C[N+](=C1)C.C(F)(F)(F)S(=O)(=O)[O-],C(CCn1cc[n+](C)c1)C.[O-]S(=O)(=O)C(F)(F)F,6,500,132,6
293.15,50.0,0.1534,Training,1-butyl-3-methylimidazolium trifluoromethanesulfonate,CCCCN1C=C[N+](=C1)C.C(F)(F)(F)S(=O)(=O)[O-],CCCCn1cc[n+](C)c1.O=S([O-])(=O)C(F)(F)F,6,500,132,6
293.15,50.0,0.1534,Training,1-butyl-3-methylimidazolium trifluoromethanesulfonate,CCCCN1C=C[N+](=C1)C.C(F)(F)(F)S(=O)(=O)[O-],O=S(=O)([O-])C(F)(F)F.c1n(c[n+](c1)C)CCCC,6,500,132,6
293.15,50.0,0.1534,Training,1-butyl-3-methylimidazolium trifluoromethanesulfonate,CCCCN1C=C[N+](=C1)C.C(F)(F)(F)S(=O)(=O)[O-],C(Cn1c[n+](C)cc1)CC.[O-]S(=O)(=O)C(F)(F)F,6,500,132,6