T/K,P/MPa,TC/W m-1 K-1,Data type,Name,SMILES,Normalized SMILES,index,P/bar,RANDOM,IL
294.2,10.0,0.165,Training,N-hexylpyridinium tetrafluoroborate,[B-](F)(F)(F)F.CCCCCC[N+]1=CC=CC=C1,C(CC)CCC[n+]1ccccc1.F[B-](F)(F)F,36,100,466,36
294.2,10.0,0.165,Training,N-hexylpyridinium tetrafluoroborate,[B-](F)(F)(F)F.CCCCCC[N+]1=CC=CC=C1,F[B-](F)(F)F.c1c[n+](CCCCCC)ccc1,36,100,466,36
294.2,10.0,0.165,Training,N-hexylpyridinium tetrafluoroborate,[B-](F)(F)(F)F.CCCCCC[N+]1=CC=CC=C1,C(C)CCCC[n+]1ccccc1.F[B-](F)(F)F,36,100,466,36
294.2,10.0,0.165,Training,N-hexylpyridinium tetrafluoroborate,[B-](F)(F)(F)F.CCCCCC[N+]1=CC=CC=C1,F[B-](F)(F)F.c1ccc[n+](c1)CCCCCC,36,100,466,36
294.2,10.0,0.165,Training,N-hexylpyridinium tetrafluoroborate,[B-](F)(F)(F)F.CCCCCC[N+]1=CC=CC=C1,C(C[n+]1ccccc1)CCCC.F[B-](F)(F)F,36,100,466,36
294.2,10.0,0.165,Training,N-hexylpyridinium tetrafluoroborate,[B-](F)(F)(F)F.CCCCCC[N+]1=CC=CC=C1,F[B-](F)(F)F.c1[n+](cccc1)CCCCCC,36,100,466,36
294.2,20.0,0.166,Training,N-hexylpyridinium tetrafluoroborate,[B-](F)(F)(F)F.CCCCCC[N+]1=CC=CC=C1,CCCCCC[n+]1ccccc1.F[B-](F)(F)F,36,200,467,36
294.2,20.0,0.166,Training,N-hexylpyridinium tetrafluoroborate,[B-](F)(F)(F)F.CCCCCC[N+]1=CC=CC=C1,C([n+]1ccccc1)CCCCC.F[B-](F)(F)F,36,200,467,36
294.2,20.0,0.166,Training,N-hexylpyridinium tetrafluoroborate,[B-](F)(F)(F)F.CCCCCC[N+]1=CC=CC=C1,[B-](F)(F)(F)F.c1cc[n+](CCCCCC)cc1,36,200,467,36
294.2,20.0,0.166,Training,N-hexylpyridinium tetrafluoroborate,[B-](F)(F)(F)F.CCCCCC[N+]1=CC=CC=C1,F[B-](F)(F)F.c1c[n+](CCCCCC)ccc1,36,200,467,36
294.2,20.0,0.166,Training,N-hexylpyridinium tetrafluoroborate,[B-](F)(F)(F)F.CCCCCC[N+]1=CC=CC=C1,C(CCCCC)[n+]1ccccc1.[B-](F)(F)(F)F,36,200,467,36
294.2,20.0,0.166,Training,N-hexylpyridinium tetrafluoroborate,[B-](F)(F)(F)F.CCCCCC[N+]1=CC=CC=C1,C(C[n+]1ccccc1)CCCC.F[B-](F)(F)F,36,200,467,36
294.2,20.0,0.166,Training,N-hexylpyridinium tetrafluoroborate,[B-](F)(F)(F)F.CCCCCC[N+]1=CC=CC=C1,F[B-](F)(F)F.c1[n+](cccc1)CCCCCC,36,200,467,36
294.2,20.0,0.166,Training,N-hexylpyridinium tetrafluoroborate,[B-](F)(F)(F)F.CCCCCC[N+]1=CC=CC=C1,C(CCC[n+]1ccccc1)CC.[B-](F)(F)(F)F,36,200,467,36
314.3,0.1,0.163,Training,N-hexylpyridinium tetrafluoroborate,[B-](F)(F)(F)F.CCCCCC[N+]1=CC=CC=C1,CCCCCC[n+]1ccccc1.F[B-](F)(F)F,36,1,468,36
314.3,0.1,0.163,Training,N-hexylpyridinium tetrafluoroborate,[B-](F)(F)(F)F.CCCCCC[N+]1=CC=CC=C1,F[B-](F)(F)F.c1cc[n+](CCCCCC)cc1,36,1,468,36
314.3,0.1,0.163,Training,N-hexylpyridinium tetrafluoroborate,[B-](F)(F)(F)F.CCCCCC[N+]1=CC=CC=C1,F[B-](F)(F)F.c1[n+](cccc1)CCCCCC,36,1,468,36
314.3,0.1,0.163,Training,N-hexylpyridinium tetrafluoroborate,[B-](F)(F)(F)F.CCCCCC[N+]1=CC=CC=C1,F[B-](F)(F)F.c1cccc[n+]1CCCCCC,36,1,468,36
314.3,0.1,0.163,Training,N-hexylpyridinium tetrafluoroborate,[B-](F)(F)(F)F.CCCCCC[N+]1=CC=CC=C1,[B-](F)(F)(F)F.c1cc[n+](cc1)CCCCCC,36,1,468,36
314.3,0.1,0.163,Training,N-hexylpyridinium tetrafluoroborate,[B-](F)(F)(F)F.CCCCCC[N+]1=CC=CC=C1,F[B-](F)(F)F.[n+]1(CCCCCC)ccccc1,36,1,468,36
314.3,0.1,0.163,Training,N-hexylpyridinium tetrafluoroborate,[B-](F)(F)(F)F.CCCCCC[N+]1=CC=CC=C1,[B-](F)(F)(F)F.c1c[n+](CCCCCC)ccc1,36,1,468,36
314.3,0.1,0.163,Training,N-hexylpyridinium tetrafluoroborate,[B-](F)(F)(F)F.CCCCCC[N+]1=CC=CC=C1,F[B-](F)(F)F.c1c[n+](CCCCCC)ccc1,36,1,468,36
314.3,0.1,0.163,Training,N-hexylpyridinium tetrafluoroborate,[B-](F)(F)(F)F.CCCCCC[N+]1=CC=CC=C1,C(C)CCCC[n+]1ccccc1.F[B-](F)(F)F,36,1,468,36
314.3,10.0,0.163,Testing,N-hexylpyridinium tetrafluoroborate,[B-](F)(F)(F)F.CCCCCC[N+]1=CC=CC=C1,CCCCCC[n+]1ccccc1.F[B-](F)(F)F,36,100,469,36
314.3,10.0,0.163,Testing,N-hexylpyridinium tetrafluoroborate,[B-](F)(F)(F)F.CCCCCC[N+]1=CC=CC=C1,F[B-](F)(F)F.c1[n+](CCCCCC)cccc1,36,100,469,36
314.3,10.0,0.163,Testing,N-hexylpyridinium tetrafluoroborate,[B-](F)(F)(F)F.CCCCCC[N+]1=CC=CC=C1,F[B-](F)(F)F.c1c[n+](ccc1)CCCCCC,36,100,469,36
314.3,10.0,0.163,Testing,N-hexylpyridinium tetrafluoroborate,[B-](F)(F)(F)F.CCCCCC[N+]1=CC=CC=C1,C(CCCC[n+]1ccccc1)C.F[B-](F)(F)F,36,100,469,36
314.3,10.0,0.163,Testing,N-hexylpyridinium tetrafluoroborate,[B-](F)(F)(F)F.CCCCCC[N+]1=CC=CC=C1,F[B-](F)(F)F.c1[n+](cccc1)CCCCCC,36,100,469,36
314.3,10.0,0.163,Testing,N-hexylpyridinium tetrafluoroborate,[B-](F)(F)(F)F.CCCCCC[N+]1=CC=CC=C1,C(CC)CCC[n+]1ccccc1.F[B-](F)(F)F,36,100,469,36
314.3,10.0,0.163,Testing,N-hexylpyridinium tetrafluoroborate,[B-](F)(F)(F)F.CCCCCC[N+]1=CC=CC=C1,C(CCCC[n+]1ccccc1)C.[B-](F)(F)(F)F,36,100,469,36
314.3,10.0,0.163,Testing,N-hexylpyridinium tetrafluoroborate,[B-](F)(F)(F)F.CCCCCC[N+]1=CC=CC=C1,F[B-](F)(F)F.c1cccc[n+]1CCCCCC,36,100,469,36
314.3,20.0,0.164,Training,N-hexylpyridinium tetrafluoroborate,[B-](F)(F)(F)F.CCCCCC[N+]1=CC=CC=C1,CCCCCC[n+]1ccccc1.F[B-](F)(F)F,36,200,470,36
314.3,20.0,0.164,Training,N-hexylpyridinium tetrafluoroborate,[B-](F)(F)(F)F.CCCCCC[N+]1=CC=CC=C1,[B-](F)(F)(F)F.c1ccc[n+](CCCCCC)c1,36,200,470,36
314.3,20.0,0.164,Training,N-hexylpyridinium tetrafluoroborate,[B-](F)(F)(F)F.CCCCCC[N+]1=CC=CC=C1,C(C[n+]1ccccc1)CCCC.F[B-](F)(F)F,36,200,470,36
314.3,20.0,0.164,Training,N-hexylpyridinium tetrafluoroborate,[B-](F)(F)(F)F.CCCCCC[N+]1=CC=CC=C1,C(CC)CCC[n+]1ccccc1.F[B-](F)(F)F,36,200,470,36
314.3,20.0,0.164,Training,N-hexylpyridinium tetrafluoroborate,[B-](F)(F)(F)F.CCCCCC[N+]1=CC=CC=C1,C(CCC)CC[n+]1ccccc1.F[B-](F)(F)F,36,200,470,36
314.3,20.0,0.164,Training,N-hexylpyridinium tetrafluoroborate,[B-](F)(F)(F)F.CCCCCC[N+]1=CC=CC=C1,CCCCCC[n+]1ccccc1.[B-](F)(F)(F)F,36,200,470,36
314.3,20.0,0.164,Training,N-hexylpyridinium tetrafluoroborate,[B-](F)(F)(F)F.CCCCCC[N+]1=CC=CC=C1,[B-](F)(F)(F)F.c1cc[n+](CCCCCC)cc1,36,200,470,36
314.3,20.0,0.164,Training,N-hexylpyridinium tetrafluoroborate,[B-](F)(F)(F)F.CCCCCC[N+]1=CC=CC=C1,F[B-](F)(F)F.c1cc[n+](CCCCCC)cc1,36,200,470,36
314.3,20.0,0.164,Training,N-hexylpyridinium tetrafluoroborate,[B-](F)(F)(F)F.CCCCCC[N+]1=CC=CC=C1,C(C)CCCC[n+]1ccccc1.F[B-](F)(F)F,36,200,470,36
334.3,0.1,0.161,Training,N-hexylpyridinium tetrafluoroborate,[B-](F)(F)(F)F.CCCCCC[N+]1=CC=CC=C1,CCCCCC[n+]1ccccc1.F[B-](F)(F)F,36,1,471,36
334.3,0.1,0.161,Training,N-hexylpyridinium tetrafluoroborate,[B-](F)(F)(F)F.CCCCCC[N+]1=CC=CC=C1,C(CCC)CC[n+]1ccccc1.[B-](F)(F)(F)F,36,1,471,36
334.3,0.1,0.161,Training,N-hexylpyridinium tetrafluoroborate,[B-](F)(F)(F)F.CCCCCC[N+]1=CC=CC=C1,F[B-](F)(F)F.[n+]1(CCCCCC)ccccc1,36,1,471,36
334.3,0.1,0.161,Training,N-hexylpyridinium tetrafluoroborate,[B-](F)(F)(F)F.CCCCCC[N+]1=CC=CC=C1,C(C)CCCC[n+]1ccccc1.F[B-](F)(F)F,36,1,471,36
334.3,0.1,0.161,Training,N-hexylpyridinium tetrafluoroborate,[B-](F)(F)(F)F.CCCCCC[N+]1=CC=CC=C1,[B-](F)(F)(F)F.[n+]1(ccccc1)CCCCCC,36,1,471,36
334.3,0.1,0.161,Training,N-hexylpyridinium tetrafluoroborate,[B-](F)(F)(F)F.CCCCCC[N+]1=CC=CC=C1,CCCCCC[n+]1ccccc1.[B-](F)(F)(F)F,36,1,471,36
334.3,0.1,0.161,Training,N-hexylpyridinium tetrafluoroborate,[B-](F)(F)(F)F.CCCCCC[N+]1=CC=CC=C1,F[B-](F)(F)F.c1cccc[n+]1CCCCCC,36,1,471,36
334.3,0.1,0.161,Training,N-hexylpyridinium tetrafluoroborate,[B-](F)(F)(F)F.CCCCCC[N+]1=CC=CC=C1,C(CCCC)C[n+]1ccccc1.F[B-](F)(F)F,36,1,471,36
334.3,0.1,0.161,Training,N-hexylpyridinium tetrafluoroborate,[B-](F)(F)(F)F.CCCCCC[N+]1=CC=CC=C1,C(C[n+]1ccccc1)CCCC.F[B-](F)(F)F,36,1,471,36
334.3,10.0,0.162,Training,N-hexylpyridinium tetrafluoroborate,[B-](F)(F)(F)F.CCCCCC[N+]1=CC=CC=C1,CCCCCC[n+]1ccccc1.F[B-](F)(F)F,36,100,472,36
334.3,10.0,0.162,Training,N-hexylpyridinium tetrafluoroborate,[B-](F)(F)(F)F.CCCCCC[N+]1=CC=CC=C1,[B-](F)(F)(F)F.c1cc[n+](CCCCCC)cc1,36,100,472,36
334.3,10.0,0.162,Training,N-hexylpyridinium tetrafluoroborate,[B-](F)(F)(F)F.CCCCCC[N+]1=CC=CC=C1,C(CCC)CC[n+]1ccccc1.F[B-](F)(F)F,36,100,472,36
334.3,10.0,0.162,Training,N-hexylpyridinium tetrafluoroborate,[B-](F)(F)(F)F.CCCCCC[N+]1=CC=CC=C1,C([n+]1ccccc1)CCCCC.F[B-](F)(F)F,36,100,472,36
334.3,10.0,0.162,Training,N-hexylpyridinium tetrafluoroborate,[B-](F)(F)(F)F.CCCCCC[N+]1=CC=CC=C1,[B-](F)(F)(F)F.[n+]1(ccccc1)CCCCCC,36,100,472,36
334.3,10.0,0.162,Training,N-hexylpyridinium tetrafluoroborate,[B-](F)(F)(F)F.CCCCCC[N+]1=CC=CC=C1,F[B-](F)(F)F.c1cc[n+](CCCCCC)cc1,36,100,472,36
334.3,10.0,0.162,Training,N-hexylpyridinium tetrafluoroborate,[B-](F)(F)(F)F.CCCCCC[N+]1=CC=CC=C1,C(CCCC)C[n+]1ccccc1.F[B-](F)(F)F,36,100,472,36
334.3,10.0,0.162,Training,N-hexylpyridinium tetrafluoroborate,[B-](F)(F)(F)F.CCCCCC[N+]1=CC=CC=C1,F[B-](F)(F)F.c1[n+](CCCCCC)cccc1,36,100,472,36
334.3,10.0,0.162,Training,N-hexylpyridinium tetrafluoroborate,[B-](F)(F)(F)F.CCCCCC[N+]1=CC=CC=C1,C(CC)CCC[n+]1ccccc1.F[B-](F)(F)F,36,100,472,36
334.3,20.0,0.163,Training,N-hexylpyridinium tetrafluoroborate,[B-](F)(F)(F)F.CCCCCC[N+]1=CC=CC=C1,CCCCCC[n+]1ccccc1.F[B-](F)(F)F,36,200,473,36
334.3,20.0,0.163,Training,N-hexylpyridinium tetrafluoroborate,[B-](F)(F)(F)F.CCCCCC[N+]1=CC=CC=C1,CCCCCC[n+]1ccccc1.[B-](F)(F)(F)F,36,200,473,36
334.3,20.0,0.163,Training,N-hexylpyridinium tetrafluoroborate,[B-](F)(F)(F)F.CCCCCC[N+]1=CC=CC=C1,[B-](F)(F)(F)F.c1ccc[n+](CCCCCC)c1,36,200,473,36
334.3,20.0,0.163,Training,N-hexylpyridinium tetrafluoroborate,[B-](F)(F)(F)F.CCCCCC[N+]1=CC=CC=C1,C(CCCC[n+]1ccccc1)C.F[B-](F)(F)F,36,200,473,36
334.3,20.0,0.163,Training,N-hexylpyridinium tetrafluoroborate,[B-](F)(F)(F)F.CCCCCC[N+]1=CC=CC=C1,F[B-](F)(F)F.c1c[n+](CCCCCC)ccc1,36,200,473,36
334.3,20.0,0.163,Training,N-hexylpyridinium tetrafluoroborate,[B-](F)(F)(F)F.CCCCCC[N+]1=CC=CC=C1,F[B-](F)(F)F.c1c[n+](ccc1)CCCCCC,36,200,473,36
334.3,20.0,0.163,Training,N-hexylpyridinium tetrafluoroborate,[B-](F)(F)(F)F.CCCCCC[N+]1=CC=CC=C1,[B-](F)(F)(F)F.c1[n+](cccc1)CCCCCC,36,200,473,36
334.3,20.0,0.163,Training,N-hexylpyridinium tetrafluoroborate,[B-](F)(F)(F)F.CCCCCC[N+]1=CC=CC=C1,C(CCCC)C[n+]1ccccc1.F[B-](F)(F)F,36,200,473,36
334.3,20.0,0.163,Training,N-hexylpyridinium tetrafluoroborate,[B-](F)(F)(F)F.CCCCCC[N+]1=CC=CC=C1,F[B-](F)(F)F.c1cc[n+](CCCCCC)cc1,36,200,473,36
294.2,0.1,0.16,Training,N-octylpyridinium tetrafluoroborate,[B-](F)(F)(F)F.CCCCCCCC[N+]1=CC=CC=C1,CCCCCCCC[n+]1ccccc1.F[B-](F)(F)F,37,1,474,37
294.2,0.1,0.16,Training,N-octylpyridinium tetrafluoroborate,[B-](F)(F)(F)F.CCCCCCCC[N+]1=CC=CC=C1,C(CCCCCC[n+]1ccccc1)C.F[B-](F)(F)F,37,1,474,37
294.2,0.1,0.16,Training,N-octylpyridinium tetrafluoroborate,[B-](F)(F)(F)F.CCCCCCCC[N+]1=CC=CC=C1,F[B-](F)(F)F.c1c[n+](ccc1)CCCCCCCC,37,1,474,37
294.2,0.1,0.16,Training,N-octylpyridinium tetrafluoroborate,[B-](F)(F)(F)F.CCCCCCCC[N+]1=CC=CC=C1,C(CCCCCCC)[n+]1ccccc1.[B-](F)(F)(F)F,37,1,474,37
294.2,0.1,0.16,Training,N-octylpyridinium tetrafluoroborate,[B-](F)(F)(F)F.CCCCCCCC[N+]1=CC=CC=C1,C(CC)CCCCC[n+]1ccccc1.[B-](F)(F)(F)F,37,1,474,37
294.2,0.1,0.16,Training,N-octylpyridinium tetrafluoroborate,[B-](F)(F)(F)F.CCCCCCCC[N+]1=CC=CC=C1,C(C)CCCCCC[n+]1ccccc1.F[B-](F)(F)F,37,1,474,37
294.2,0.1,0.16,Training,N-octylpyridinium tetrafluoroborate,[B-](F)(F)(F)F.CCCCCCCC[N+]1=CC=CC=C1,C(CCCCC)CC[n+]1ccccc1.F[B-](F)(F)F,37,1,474,37
294.2,0.1,0.16,Training,N-octylpyridinium tetrafluoroborate,[B-](F)(F)(F)F.CCCCCCCC[N+]1=CC=CC=C1,F[B-](F)(F)F.c1ccc[n+](CCCCCCCC)c1,37,1,474,37
294.2,0.1,0.16,Training,N-octylpyridinium tetrafluoroborate,[B-](F)(F)(F)F.CCCCCCCC[N+]1=CC=CC=C1,F[B-](F)(F)F.c1cc[n+](cc1)CCCCCCCC,37,1,474,37
294.2,10.0,0.163,Testing,N-octylpyridinium tetrafluoroborate,[B-](F)(F)(F)F.CCCCCCCC[N+]1=CC=CC=C1,CCCCCCCC[n+]1ccccc1.F[B-](F)(F)F,37,100,475,37
294.2,10.0,0.163,Testing,N-octylpyridinium tetrafluoroborate,[B-](F)(F)(F)F.CCCCCCCC[N+]1=CC=CC=C1,C(CC)CCCCC[n+]1ccccc1.F[B-](F)(F)F,37,100,475,37
294.2,10.0,0.163,Testing,N-octylpyridinium tetrafluoroborate,[B-](F)(F)(F)F.CCCCCCCC[N+]1=CC=CC=C1,C(CCCC)CCC[n+]1ccccc1.F[B-](F)(F)F,37,100,475,37
294.2,10.0,0.163,Testing,N-octylpyridinium tetrafluoroborate,[B-](F)(F)(F)F.CCCCCCCC[N+]1=CC=CC=C1,F[B-](F)(F)F.c1cccc[n+]1CCCCCCCC,37,100,475,37
294.2,10.0,0.163,Testing,N-octylpyridinium tetrafluoroborate,[B-](F)(F)(F)F.CCCCCCCC[N+]1=CC=CC=C1,C(CCCC[n+]1ccccc1)CCC.F[B-](F)(F)F,37,100,475,37
294.2,10.0,0.163,Testing,N-octylpyridinium tetrafluoroborate,[B-](F)(F)(F)F.CCCCCCCC[N+]1=CC=CC=C1,F[B-](F)(F)F.c1cc[n+](cc1)CCCCCCCC,37,100,475,37
294.2,10.0,0.163,Testing,N-octylpyridinium tetrafluoroborate,[B-](F)(F)(F)F.CCCCCCCC[N+]1=CC=CC=C1,F[B-](F)(F)F.c1[n+](CCCCCCCC)cccc1,37,100,475,37
294.2,10.0,0.163,Testing,N-octylpyridinium tetrafluoroborate,[B-](F)(F)(F)F.CCCCCCCC[N+]1=CC=CC=C1,[B-](F)(F)(F)F.c1cc[n+](cc1)CCCCCCCC,37,100,475,37
294.2,10.0,0.163,Testing,N-octylpyridinium tetrafluoroborate,[B-](F)(F)(F)F.CCCCCCCC[N+]1=CC=CC=C1,C(CCCCCCC)[n+]1ccccc1.F[B-](F)(F)F,37,100,475,37
294.2,20.0,0.165,Training,N-octylpyridinium tetrafluoroborate,[B-](F)(F)(F)F.CCCCCCCC[N+]1=CC=CC=C1,CCCCCCCC[n+]1ccccc1.F[B-](F)(F)F,37,200,476,37
294.2,20.0,0.165,Training,N-octylpyridinium tetrafluoroborate,[B-](F)(F)(F)F.CCCCCCCC[N+]1=CC=CC=C1,C(CCC)CCCC[n+]1ccccc1.[B-](F)(F)(F)F,37,200,476,37
294.2,20.0,0.165,Training,N-octylpyridinium tetrafluoroborate,[B-](F)(F)(F)F.CCCCCCCC[N+]1=CC=CC=C1,C(CCCC)CCC[n+]1ccccc1.[B-](F)(F)(F)F,37,200,476,37
294.2,20.0,0.165,Training,N-octylpyridinium tetrafluoroborate,[B-](F)(F)(F)F.CCCCCCCC[N+]1=CC=CC=C1,C(CCCC)CCC[n+]1ccccc1.F[B-](F)(F)F,37,200,476,37
294.2,20.0,0.165,Training,N-octylpyridinium tetrafluoroborate,[B-](F)(F)(F)F.CCCCCCCC[N+]1=CC=CC=C1,C(CCCCCCC)[n+]1ccccc1.F[B-](F)(F)F,37,200,476,37
294.2,20.0,0.165,Training,N-octylpyridinium tetrafluoroborate,[B-](F)(F)(F)F.CCCCCCCC[N+]1=CC=CC=C1,F[B-](F)(F)F.c1c[n+](CCCCCCCC)ccc1,37,200,476,37
294.2,20.0,0.165,Training,N-octylpyridinium tetrafluoroborate,[B-](F)(F)(F)F.CCCCCCCC[N+]1=CC=CC=C1,C([n+]1ccccc1)CCCCCCC.[B-](F)(F)(F)F,37,200,476,37
294.2,20.0,0.165,Training,N-octylpyridinium tetrafluoroborate,[B-](F)(F)(F)F.CCCCCCCC[N+]1=CC=CC=C1,F[B-](F)(F)F.[n+]1(CCCCCCCC)ccccc1,37,200,476,37
294.2,20.0,0.165,Training,N-octylpyridinium tetrafluoroborate,[B-](F)(F)(F)F.CCCCCCCC[N+]1=CC=CC=C1,C(CCC[n+]1ccccc1)CCCC.F[B-](F)(F)F,37,200,476,37
294.2,20.0,0.165,Training,N-octylpyridinium tetrafluoroborate,[B-](F)(F)(F)F.CCCCCCCC[N+]1=CC=CC=C1,C([n+]1ccccc1)CCCCCCC.F[B-](F)(F)F,37,200,476,37
314.3,0.1,0.16,Training,N-octylpyridinium tetrafluoroborate,[B-](F)(F)(F)F.CCCCCCCC[N+]1=CC=CC=C1,CCCCCCCC[n+]1ccccc1.F[B-](F)(F)F,37,1,477,37
314.3,0.1,0.16,Training,N-octylpyridinium tetrafluoroborate,[B-](F)(F)(F)F.CCCCCCCC[N+]1=CC=CC=C1,[B-](F)(F)(F)F.c1[n+](cccc1)CCCCCCCC,37,1,477,37
314.3,0.1,0.16,Training,N-octylpyridinium tetrafluoroborate,[B-](F)(F)(F)F.CCCCCCCC[N+]1=CC=CC=C1,C(CCCCCCC)[n+]1ccccc1.F[B-](F)(F)F,37,1,477,37
314.3,0.1,0.16,Training,N-octylpyridinium tetrafluoroborate,[B-](F)(F)(F)F.CCCCCCCC[N+]1=CC=CC=C1,C(CCCCC[n+]1ccccc1)CC.F[B-](F)(F)F,37,1,477,37
314.3,0.1,0.16,Training,N-octylpyridinium tetrafluoroborate,[B-](F)(F)(F)F.CCCCCCCC[N+]1=CC=CC=C1,C(CC[n+]1ccccc1)CCCCC.F[B-](F)(F)F,37,1,477,37
314.3,0.1,0.16,Training,N-octylpyridinium tetrafluoroborate,[B-](F)(F)(F)F.CCCCCCCC[N+]1=CC=CC=C1,F[B-](F)(F)F.[n+]1(CCCCCCCC)ccccc1,37,1,477,37
314.3,0.1,0.16,Training,N-octylpyridinium tetrafluoroborate,[B-](F)(F)(F)F.CCCCCCCC[N+]1=CC=CC=C1,C(CCCCC)CC[n+]1ccccc1.F[B-](F)(F)F,37,1,477,37
314.3,0.1,0.16,Training,N-octylpyridinium tetrafluoroborate,[B-](F)(F)(F)F.CCCCCCCC[N+]1=CC=CC=C1,F[B-](F)(F)F.c1cccc[n+]1CCCCCCCC,37,1,477,37
314.3,10.0,0.161,Training,N-octylpyridinium tetrafluoroborate,[B-](F)(F)(F)F.CCCCCCCC[N+]1=CC=CC=C1,CCCCCCCC[n+]1ccccc1.F[B-](F)(F)F,37,100,478,37
314.3,10.0,0.161,Training,N-octylpyridinium tetrafluoroborate,[B-](F)(F)(F)F.CCCCCCCC[N+]1=CC=CC=C1,[B-](F)(F)(F)F.c1ccc[n+](CCCCCCCC)c1,37,100,478,37
314.3,10.0,0.161,Training,N-octylpyridinium tetrafluoroborate,[B-](F)(F)(F)F.CCCCCCCC[N+]1=CC=CC=C1,C(C)CCCCCC[n+]1ccccc1.[B-](F)(F)(F)F,37,100,478,37
314.3,10.0,0.161,Training,N-octylpyridinium tetrafluoroborate,[B-](F)(F)(F)F.CCCCCCCC[N+]1=CC=CC=C1,C(CCCC)CCC[n+]1ccccc1.F[B-](F)(F)F,37,100,478,37
314.3,10.0,0.161,Training,N-octylpyridinium tetrafluoroborate,[B-](F)(F)(F)F.CCCCCCCC[N+]1=CC=CC=C1,F[B-](F)(F)F.[n+]1(CCCCCCCC)ccccc1,37,100,478,37
314.3,10.0,0.161,Training,N-octylpyridinium tetrafluoroborate,[B-](F)(F)(F)F.CCCCCCCC[N+]1=CC=CC=C1,C(CCCC[n+]1ccccc1)CCC.F[B-](F)(F)F,37,100,478,37
314.3,10.0,0.161,Training,N-octylpyridinium tetrafluoroborate,[B-](F)(F)(F)F.CCCCCCCC[N+]1=CC=CC=C1,F[B-](F)(F)F.c1cc[n+](cc1)CCCCCCCC,37,100,478,37
314.3,10.0,0.161,Training,N-octylpyridinium tetrafluoroborate,[B-](F)(F)(F)F.CCCCCCCC[N+]1=CC=CC=C1,C(CCCCC[n+]1ccccc1)CC.F[B-](F)(F)F,37,100,478,37
314.3,20.0,0.164,Training,N-octylpyridinium tetrafluoroborate,[B-](F)(F)(F)F.CCCCCCCC[N+]1=CC=CC=C1,CCCCCCCC[n+]1ccccc1.F[B-](F)(F)F,37,200,479,37
314.3,20.0,0.164,Training,N-octylpyridinium tetrafluoroborate,[B-](F)(F)(F)F.CCCCCCCC[N+]1=CC=CC=C1,C(CCCCCC[n+]1ccccc1)C.F[B-](F)(F)F,37,200,479,37
314.3,20.0,0.164,Training,N-octylpyridinium tetrafluoroborate,[B-](F)(F)(F)F.CCCCCCCC[N+]1=CC=CC=C1,CCCCCCCC[n+]1ccccc1.[B-](F)(F)(F)F,37,200,479,37
314.3,20.0,0.164,Training,N-octylpyridinium tetrafluoroborate,[B-](F)(F)(F)F.CCCCCCCC[N+]1=CC=CC=C1,[B-](F)(F)(F)F.c1ccc[n+](c1)CCCCCCCC,37,200,479,37
314.3,20.0,0.164,Training,N-octylpyridinium tetrafluoroborate,[B-](F)(F)(F)F.CCCCCCCC[N+]1=CC=CC=C1,C(CC[n+]1ccccc1)CCCCC.F[B-](F)(F)F,37,200,479,37
314.3,20.0,0.164,Training,N-octylpyridinium tetrafluoroborate,[B-](F)(F)(F)F.CCCCCCCC[N+]1=CC=CC=C1,C(CCCC[n+]1ccccc1)CCC.F[B-](F)(F)F,37,200,479,37
314.3,20.0,0.164,Training,N-octylpyridinium tetrafluoroborate,[B-](F)(F)(F)F.CCCCCCCC[N+]1=CC=CC=C1,[B-](F)(F)(F)F.[n+]1(CCCCCCCC)ccccc1,37,200,479,37
314.3,20.0,0.164,Training,N-octylpyridinium tetrafluoroborate,[B-](F)(F)(F)F.CCCCCCCC[N+]1=CC=CC=C1,F[B-](F)(F)F.c1cccc[n+]1CCCCCCCC,37,200,479,37
314.3,20.0,0.164,Training,N-octylpyridinium tetrafluoroborate,[B-](F)(F)(F)F.CCCCCCCC[N+]1=CC=CC=C1,C(CCCCC[n+]1ccccc1)CC.F[B-](F)(F)F,37,200,479,37
334.3,0.1,0.158,Training,N-octylpyridinium tetrafluoroborate,[B-](F)(F)(F)F.CCCCCCCC[N+]1=CC=CC=C1,CCCCCCCC[n+]1ccccc1.F[B-](F)(F)F,37,1,480,37
334.3,0.1,0.158,Training,N-octylpyridinium tetrafluoroborate,[B-](F)(F)(F)F.CCCCCCCC[N+]1=CC=CC=C1,C(CCCCCCC)[n+]1ccccc1.F[B-](F)(F)F,37,1,480,37
334.3,0.1,0.158,Training,N-octylpyridinium tetrafluoroborate,[B-](F)(F)(F)F.CCCCCCCC[N+]1=CC=CC=C1,[B-](F)(F)(F)F.c1[n+](CCCCCCCC)cccc1,37,1,480,37
334.3,0.1,0.158,Training,N-octylpyridinium tetrafluoroborate,[B-](F)(F)(F)F.CCCCCCCC[N+]1=CC=CC=C1,CCCCCCCC[n+]1ccccc1.[B-](F)(F)(F)F,37,1,480,37
334.3,0.1,0.158,Training,N-octylpyridinium tetrafluoroborate,[B-](F)(F)(F)F.CCCCCCCC[N+]1=CC=CC=C1,F[B-](F)(F)F.c1cccc[n+]1CCCCCCCC,37,1,480,37
334.3,0.1,0.158,Training,N-octylpyridinium tetrafluoroborate,[B-](F)(F)(F)F.CCCCCCCC[N+]1=CC=CC=C1,F[B-](F)(F)F.c1[n+](CCCCCCCC)cccc1,37,1,480,37
334.3,0.1,0.158,Training,N-octylpyridinium tetrafluoroborate,[B-](F)(F)(F)F.CCCCCCCC[N+]1=CC=CC=C1,C(CCCCC[n+]1ccccc1)CC.F[B-](F)(F)F,37,1,480,37
334.3,0.1,0.158,Training,N-octylpyridinium tetrafluoroborate,[B-](F)(F)(F)F.CCCCCCCC[N+]1=CC=CC=C1,C(CCC)CCCC[n+]1ccccc1.F[B-](F)(F)F,37,1,480,37
334.3,0.1,0.158,Training,N-octylpyridinium tetrafluoroborate,[B-](F)(F)(F)F.CCCCCCCC[N+]1=CC=CC=C1,C([n+]1ccccc1)CCCCCCC.F[B-](F)(F)F,37,1,480,37
334.3,0.1,0.158,Training,N-octylpyridinium tetrafluoroborate,[B-](F)(F)(F)F.CCCCCCCC[N+]1=CC=CC=C1,F[B-](F)(F)F.[n+]1(ccccc1)CCCCCCCC,37,1,480,37
334.3,10.0,0.159,Training,N-octylpyridinium tetrafluoroborate,[B-](F)(F)(F)F.CCCCCCCC[N+]1=CC=CC=C1,CCCCCCCC[n+]1ccccc1.F[B-](F)(F)F,37,100,481,37
334.3,10.0,0.159,Training,N-octylpyridinium tetrafluoroborate,[B-](F)(F)(F)F.CCCCCCCC[N+]1=CC=CC=C1,C(CC[n+]1ccccc1)CCCCC.F[B-](F)(F)F,37,100,481,37
334.3,10.0,0.159,Training,N-octylpyridinium tetrafluoroborate,[B-](F)(F)(F)F.CCCCCCCC[N+]1=CC=CC=C1,C(C)CCCCCC[n+]1ccccc1.F[B-](F)(F)F,37,100,481,37
334.3,10.0,0.159,Training,N-octylpyridinium tetrafluoroborate,[B-](F)(F)(F)F.CCCCCCCC[N+]1=CC=CC=C1,[B-](F)(F)(F)F.c1c[n+](CCCCCCCC)ccc1,37,100,481,37
334.3,10.0,0.159,Training,N-octylpyridinium tetrafluoroborate,[B-](F)(F)(F)F.CCCCCCCC[N+]1=CC=CC=C1,C(CCC[n+]1ccccc1)CCCC.F[B-](F)(F)F,37,100,481,37
334.3,10.0,0.159,Training,N-octylpyridinium tetrafluoroborate,[B-](F)(F)(F)F.CCCCCCCC[N+]1=CC=CC=C1,F[B-](F)(F)F.c1c[n+](CCCCCCCC)ccc1,37,100,481,37