T/K,P/MPa,TC/W m-1 K-1,Data type,Name,SMILES,Normalized SMILES,index,P/bar,RANDOM,IL
313.0,0.1,0.181,Training,1-ethyl-3-methylimidazolium ethylsulfate,CCN1C=C[N+](=C1)C.CCOS(=O)(=O)[O-],C(OS(=O)(=O)[O-])C.C[n+]1cn(CC)cc1,11,1,418,11
313.0,0.1,0.181,Training,1-ethyl-3-methylimidazolium ethylsulfate,CCN1C=C[N+](=C1)C.CCOS(=O)(=O)[O-],S([O-])(=O)(=O)OCC.c1n(CC)cc[n+]1C,11,1,418,11
313.0,0.1,0.181,Training,1-ethyl-3-methylimidazolium ethylsulfate,CCN1C=C[N+](=C1)C.CCOS(=O)(=O)[O-],C[n+]1ccn(CC)c1.S(OCC)(=O)([O-])=O,11,1,418,11
313.0,0.1,0.181,Training,1-ethyl-3-methylimidazolium ethylsulfate,CCN1C=C[N+](=C1)C.CCOS(=O)(=O)[O-],C(OS([O-])(=O)=O)C.[n+]1(cn(CC)cc1)C,11,1,418,11
313.0,0.1,0.181,Training,1-ethyl-3-methylimidazolium ethylsulfate,CCN1C=C[N+](=C1)C.CCOS(=O)(=O)[O-],O=S(=O)([O-])OCC.c1cn(c[n+]1C)CC,11,1,418,11
323.0,0.1,0.179,Training,1-ethyl-3-methylimidazolium ethylsulfate,CCN1C=C[N+](=C1)C.CCOS(=O)(=O)[O-],CCOS(=O)(=O)[O-].CCn1cc[n+](C)c1,11,1,419,11
323.0,0.1,0.179,Training,1-ethyl-3-methylimidazolium ethylsulfate,CCN1C=C[N+](=C1)C.CCOS(=O)(=O)[O-],CCOS(=O)([O-])=O.n1(CC)cc[n+](C)c1,11,1,419,11
323.0,0.1,0.179,Training,1-ethyl-3-methylimidazolium ethylsulfate,CCN1C=C[N+](=C1)C.CCOS(=O)(=O)[O-],C(C)OS(=O)(=O)[O-].[n+]1(C)cn(cc1)CC,11,1,419,11
323.0,0.1,0.179,Training,1-ethyl-3-methylimidazolium ethylsulfate,CCN1C=C[N+](=C1)C.CCOS(=O)(=O)[O-],O=S(OCC)(=O)[O-].[n+]1(ccn(c1)CC)C,11,1,419,11
323.0,0.1,0.179,Training,1-ethyl-3-methylimidazolium ethylsulfate,CCN1C=C[N+](=C1)C.CCOS(=O)(=O)[O-],O=S([O-])(OCC)=O.c1c[n+](C)cn1CC,11,1,419,11
323.0,0.1,0.179,Training,1-ethyl-3-methylimidazolium ethylsulfate,CCN1C=C[N+](=C1)C.CCOS(=O)(=O)[O-],S(=O)([O-])(=O)OCC.c1[n+](C)cn(CC)c1,11,1,419,11
323.0,0.1,0.179,Training,1-ethyl-3-methylimidazolium ethylsulfate,CCN1C=C[N+](=C1)C.CCOS(=O)(=O)[O-],[O-]S(=O)(=O)OCC.[n+]1(C)cn(cc1)CC,11,1,419,11
323.0,0.1,0.179,Training,1-ethyl-3-methylimidazolium ethylsulfate,CCN1C=C[N+](=C1)C.CCOS(=O)(=O)[O-],C(n1c[n+](cc1)C)C.S(OCC)(=O)(=O)[O-],11,1,419,11
323.0,0.1,0.179,Training,1-ethyl-3-methylimidazolium ethylsulfate,CCN1C=C[N+](=C1)C.CCOS(=O)(=O)[O-],O=S(=O)(OCC)[O-].c1n(cc[n+]1C)CC,11,1,419,11
323.0,0.1,0.179,Training,1-ethyl-3-methylimidazolium ethylsulfate,CCN1C=C[N+](=C1)C.CCOS(=O)(=O)[O-],O(CC)S([O-])(=O)=O.n1(cc[n+](C)c1)CC,11,1,419,11
333.0,0.1,0.179,Testing,1-ethyl-3-methylimidazolium ethylsulfate,CCN1C=C[N+](=C1)C.CCOS(=O)(=O)[O-],CCOS(=O)(=O)[O-].CCn1cc[n+](C)c1,11,1,420,11
333.0,0.1,0.179,Testing,1-ethyl-3-methylimidazolium ethylsulfate,CCN1C=C[N+](=C1)C.CCOS(=O)(=O)[O-],[O-]S(=O)(OCC)=O.c1cn(c[n+]1C)CC,11,1,420,11
333.0,0.1,0.179,Testing,1-ethyl-3-methylimidazolium ethylsulfate,CCN1C=C[N+](=C1)C.CCOS(=O)(=O)[O-],C(C)OS([O-])(=O)=O.CCn1cc[n+](C)c1,11,1,420,11
333.0,0.1,0.179,Testing,1-ethyl-3-methylimidazolium ethylsulfate,CCN1C=C[N+](=C1)C.CCOS(=O)(=O)[O-],CCn1c[n+](C)cc1.O=S(=O)(OCC)[O-],11,1,420,11
333.0,0.1,0.179,Testing,1-ethyl-3-methylimidazolium ethylsulfate,CCN1C=C[N+](=C1)C.CCOS(=O)(=O)[O-],C(C)OS(=O)(=O)[O-].c1n(c[n+](c1)C)CC,11,1,420,11
333.0,0.1,0.179,Testing,1-ethyl-3-methylimidazolium ethylsulfate,CCN1C=C[N+](=C1)C.CCOS(=O)(=O)[O-],S(=O)(=O)([O-])OCC.n1(CC)cc[n+](c1)C,11,1,420,11
333.0,0.1,0.179,Testing,1-ethyl-3-methylimidazolium ethylsulfate,CCN1C=C[N+](=C1)C.CCOS(=O)(=O)[O-],CCOS(=O)([O-])=O.c1[n+](cn(CC)c1)C,11,1,420,11
333.0,0.1,0.179,Testing,1-ethyl-3-methylimidazolium ethylsulfate,CCN1C=C[N+](=C1)C.CCOS(=O)(=O)[O-],[O-]S(OCC)(=O)=O.c1cn(c[n+]1C)CC,11,1,420,11
333.0,0.1,0.179,Testing,1-ethyl-3-methylimidazolium ethylsulfate,CCN1C=C[N+](=C1)C.CCOS(=O)(=O)[O-],C(C)n1c[n+](cc1)C.O=S(=O)([O-])OCC,11,1,420,11
333.0,0.1,0.179,Testing,1-ethyl-3-methylimidazolium ethylsulfate,CCN1C=C[N+](=C1)C.CCOS(=O)(=O)[O-],CCOS([O-])(=O)=O.[n+]1(cn(CC)cc1)C,11,1,420,11
343.0,0.1,0.178,Training,1-ethyl-3-methylimidazolium ethylsulfate,CCN1C=C[N+](=C1)C.CCOS(=O)(=O)[O-],CCOS(=O)(=O)[O-].CCn1cc[n+](C)c1,11,1,421,11
343.0,0.1,0.178,Training,1-ethyl-3-methylimidazolium ethylsulfate,CCN1C=C[N+](=C1)C.CCOS(=O)(=O)[O-],O=S(OCC)(=O)[O-].c1cn(CC)c[n+]1C,11,1,421,11
343.0,0.1,0.178,Training,1-ethyl-3-methylimidazolium ethylsulfate,CCN1C=C[N+](=C1)C.CCOS(=O)(=O)[O-],CCOS([O-])(=O)=O.n1(c[n+](C)cc1)CC,11,1,421,11
343.0,0.1,0.178,Training,1-ethyl-3-methylimidazolium ethylsulfate,CCN1C=C[N+](=C1)C.CCOS(=O)(=O)[O-],O=S(OCC)(=O)[O-].[n+]1(cn(CC)cc1)C,11,1,421,11
343.0,0.1,0.178,Training,1-ethyl-3-methylimidazolium ethylsulfate,CCN1C=C[N+](=C1)C.CCOS(=O)(=O)[O-],S(=O)([O-])(=O)OCC.[n+]1(ccn(c1)CC)C,11,1,421,11
343.0,0.1,0.178,Training,1-ethyl-3-methylimidazolium ethylsulfate,CCN1C=C[N+](=C1)C.CCOS(=O)(=O)[O-],S(=O)(OCC)([O-])=O.[n+]1(C)ccn(c1)CC,11,1,421,11
343.0,0.1,0.178,Training,1-ethyl-3-methylimidazolium ethylsulfate,CCN1C=C[N+](=C1)C.CCOS(=O)(=O)[O-],O=S(OCC)([O-])=O.c1c[n+](C)cn1CC,11,1,421,11
343.0,0.1,0.178,Training,1-ethyl-3-methylimidazolium ethylsulfate,CCN1C=C[N+](=C1)C.CCOS(=O)(=O)[O-],O(CC)S(=O)(=O)[O-].c1[n+](C)cn(CC)c1,11,1,421,11
343.0,0.1,0.178,Training,1-ethyl-3-methylimidazolium ethylsulfate,CCN1C=C[N+](=C1)C.CCOS(=O)(=O)[O-],O(CC)S([O-])(=O)=O.[n+]1(cn(cc1)CC)C,11,1,421,11
343.0,0.1,0.178,Training,1-ethyl-3-methylimidazolium ethylsulfate,CCN1C=C[N+](=C1)C.CCOS(=O)(=O)[O-],C(n1c[n+](cc1)C)C.S([O-])(=O)(OCC)=O,11,1,421,11
353.0,0.1,0.177,Training,1-ethyl-3-methylimidazolium ethylsulfate,CCN1C=C[N+](=C1)C.CCOS(=O)(=O)[O-],CCOS(=O)(=O)[O-].CCn1cc[n+](C)c1,11,1,422,11
353.0,0.1,0.177,Training,1-ethyl-3-methylimidazolium ethylsulfate,CCN1C=C[N+](=C1)C.CCOS(=O)(=O)[O-],O=S(=O)(OCC)[O-].c1[n+](C)ccn1CC,11,1,422,11
353.0,0.1,0.177,Training,1-ethyl-3-methylimidazolium ethylsulfate,CCN1C=C[N+](=C1)C.CCOS(=O)(=O)[O-],[O-]S(=O)(=O)OCC.[n+]1(C)ccn(CC)c1,11,1,422,11
353.0,0.1,0.177,Training,1-ethyl-3-methylimidazolium ethylsulfate,CCN1C=C[N+](=C1)C.CCOS(=O)(=O)[O-],C(OS([O-])(=O)=O)C.c1n(cc[n+]1C)CC,11,1,422,11
353.0,0.1,0.177,Training,1-ethyl-3-methylimidazolium ethylsulfate,CCN1C=C[N+](=C1)C.CCOS(=O)(=O)[O-],C(n1cc[n+](C)c1)C.[O-]S(OCC)(=O)=O,11,1,422,11
353.0,0.1,0.177,Training,1-ethyl-3-methylimidazolium ethylsulfate,CCN1C=C[N+](=C1)C.CCOS(=O)(=O)[O-],S(=O)([O-])(OCC)=O.c1c[n+](cn1CC)C,11,1,422,11
353.0,0.1,0.177,Training,1-ethyl-3-methylimidazolium ethylsulfate,CCN1C=C[N+](=C1)C.CCOS(=O)(=O)[O-],O=S(OCC)(=O)[O-].n1(CC)c[n+](cc1)C,11,1,422,11
353.0,0.1,0.177,Training,1-ethyl-3-methylimidazolium ethylsulfate,CCN1C=C[N+](=C1)C.CCOS(=O)(=O)[O-],O(S(=O)([O-])=O)CC.c1[n+](cn(c1)CC)C,11,1,422,11
353.0,0.1,0.177,Training,1-ethyl-3-methylimidazolium ethylsulfate,CCN1C=C[N+](=C1)C.CCOS(=O)(=O)[O-],CCOS(=O)(=O)[O-].C[n+]1ccn(CC)c1,11,1,422,11
353.0,0.1,0.177,Training,1-ethyl-3-methylimidazolium ethylsulfate,CCN1C=C[N+](=C1)C.CCOS(=O)(=O)[O-],CCn1cc[n+](c1)C.O(S(=O)(=O)[O-])CC,11,1,422,11
293.0,0.1,0.144,Training,trihexyltetradecylphosphonium bis(trifluoromethylsulfonyl)imide,CCCCCCCCCCCCCC[P+](CCCCCC)(CCCCCC)CCCCCC.C(F)(F)(F)S(=O)(=O)[N-]S(=O)(=O)C(F)(F)F,CCCCCCCCCCCCCC[P+](CCCCCC)(CCCCCC)CCCCCC.O=S(=O)([N-]S(=O)(=O)C(F)(F)F)C(F)(F)F,17,1,423,17
293.0,0.1,0.144,Training,trihexyltetradecylphosphonium bis(trifluoromethylsulfonyl)imide,CCCCCCCCCCCCCC[P+](CCCCCC)(CCCCCC)CCCCCC.C(F)(F)(F)S(=O)(=O)[N-]S(=O)(=O)C(F)(F)F,C(CCCCCCCCCCCCC)[P+](CCCCCC)(CCCCCC)CCCCCC.O=S([N-]S(=O)(=O)C(F)(F)F)(=O)C(F)(F)F,17,1,423,17
293.0,0.1,0.144,Training,trihexyltetradecylphosphonium bis(trifluoromethylsulfonyl)imide,CCCCCCCCCCCCCC[P+](CCCCCC)(CCCCCC)CCCCCC.C(F)(F)(F)S(=O)(=O)[N-]S(=O)(=O)C(F)(F)F,CCCCCC[P+](CCCCCCCCCCCCCC)(CCCCCC)CCCCCC.O=S(=O)(C(F)(F)F)[N-]S(C(F)(F)F)(=O)=O,17,1,423,17
293.0,0.1,0.144,Training,trihexyltetradecylphosphonium bis(trifluoromethylsulfonyl)imide,CCCCCCCCCCCCCC[P+](CCCCCC)(CCCCCC)CCCCCC.C(F)(F)(F)S(=O)(=O)[N-]S(=O)(=O)C(F)(F)F,CCCCCC[P+](CCCCCC)(CCCCCCCCCCCCCC)CCCCCC.S(C(F)(F)F)([N-]S(=O)(=O)C(F)(F)F)(=O)=O,17,1,423,17
293.0,0.1,0.144,Training,trihexyltetradecylphosphonium bis(trifluoromethylsulfonyl)imide,CCCCCCCCCCCCCC[P+](CCCCCC)(CCCCCC)CCCCCC.C(F)(F)(F)S(=O)(=O)[N-]S(=O)(=O)C(F)(F)F,C(CCC[P+](CCCCCCCCCCCCCC)(CCCCCC)CCCCCC)CC.O=S([N-]S(C(F)(F)F)(=O)=O)(C(F)(F)F)=O,17,1,423,17
293.0,0.1,0.144,Training,trihexyltetradecylphosphonium bis(trifluoromethylsulfonyl)imide,CCCCCCCCCCCCCC[P+](CCCCCC)(CCCCCC)CCCCCC.C(F)(F)(F)S(=O)(=O)[N-]S(=O)(=O)C(F)(F)F,C(CCC[P+](CCCCCC)(CCCCCC)CCCCCC)CCCCCCCCCC.C(S([N-]S(=O)(C(F)(F)F)=O)(=O)=O)(F)(F)F,17,1,423,17
293.0,0.1,0.144,Training,trihexyltetradecylphosphonium bis(trifluoromethylsulfonyl)imide,CCCCCCCCCCCCCC[P+](CCCCCC)(CCCCCC)CCCCCC.C(F)(F)(F)S(=O)(=O)[N-]S(=O)(=O)C(F)(F)F,C(CCCC)C[P+](CCCCCCCCCCCCCC)(CCCCCC)CCCCCC.C(F)(F)(S([N-]S(=O)(C(F)(F)F)=O)(=O)=O)F,17,1,423,17
293.0,0.1,0.144,Training,trihexyltetradecylphosphonium bis(trifluoromethylsulfonyl)imide,CCCCCCCCCCCCCC[P+](CCCCCC)(CCCCCC)CCCCCC.C(F)(F)(F)S(=O)(=O)[N-]S(=O)(=O)C(F)(F)F,C(CCCC[P+](CCCCCC)(CCCCCC)CCCCCCCCCCCCCC)C.O=S(=O)(C(F)(F)F)[N-]S(=O)(=O)C(F)(F)F,17,1,423,17
293.0,0.1,0.144,Training,trihexyltetradecylphosphonium bis(trifluoromethylsulfonyl)imide,CCCCCCCCCCCCCC[P+](CCCCCC)(CCCCCC)CCCCCC.C(F)(F)(F)S(=O)(=O)[N-]S(=O)(=O)C(F)(F)F,C(CCCCC[P+](CCCCCC)(CCCCCC)CCCCCC)CCCCCCCC.[N-](S(=O)(=O)C(F)(F)F)S(=O)(C(F)(F)F)=O,17,1,423,17
293.0,0.1,0.144,Training,trihexyltetradecylphosphonium bis(trifluoromethylsulfonyl)imide,CCCCCCCCCCCCCC[P+](CCCCCC)(CCCCCC)CCCCCC.C(F)(F)(F)S(=O)(=O)[N-]S(=O)(=O)C(F)(F)F,C([P+](CCCCCC)(CCCCCCCCCCCCCC)CCCCCC)CCCCC.FC(S(=O)([N-]S(=O)(C(F)(F)F)=O)=O)(F)F,17,1,423,17
303.0,0.1,0.143,Training,trihexyltetradecylphosphonium bis(trifluoromethylsulfonyl)imide,CCCCCCCCCCCCCC[P+](CCCCCC)(CCCCCC)CCCCCC.C(F)(F)(F)S(=O)(=O)[N-]S(=O)(=O)C(F)(F)F,CCCCCCCCCCCCCC[P+](CCCCCC)(CCCCCC)CCCCCC.O=S(=O)([N-]S(=O)(=O)C(F)(F)F)C(F)(F)F,17,1,424,17
303.0,0.1,0.143,Training,trihexyltetradecylphosphonium bis(trifluoromethylsulfonyl)imide,CCCCCCCCCCCCCC[P+](CCCCCC)(CCCCCC)CCCCCC.C(F)(F)(F)S(=O)(=O)[N-]S(=O)(=O)C(F)(F)F,C(C)CCCC[P+](CCCCCCCCCCCCCC)(CCCCCC)CCCCCC.O=S(=O)(C(F)(F)F)[N-]S(=O)(=O)C(F)(F)F,17,1,424,17
303.0,0.1,0.143,Training,trihexyltetradecylphosphonium bis(trifluoromethylsulfonyl)imide,CCCCCCCCCCCCCC[P+](CCCCCC)(CCCCCC)CCCCCC.C(F)(F)(F)S(=O)(=O)[N-]S(=O)(=O)C(F)(F)F,C(C[P+](CCCCCC)(CCCCCC)CCCCCCCCCCCCCC)CCCC.FC(S(=O)([N-]S(C(F)(F)F)(=O)=O)=O)(F)F,17,1,424,17
303.0,0.1,0.143,Training,trihexyltetradecylphosphonium bis(trifluoromethylsulfonyl)imide,CCCCCCCCCCCCCC[P+](CCCCCC)(CCCCCC)CCCCCC.C(F)(F)(F)S(=O)(=O)[N-]S(=O)(=O)C(F)(F)F,C(CCCCC)CCCCCCCC[P+](CCCCCC)(CCCCCC)CCCCCC.FC(F)(F)S(=O)(=O)[N-]S(=O)(=O)C(F)(F)F,17,1,424,17
303.0,0.1,0.143,Training,trihexyltetradecylphosphonium bis(trifluoromethylsulfonyl)imide,CCCCCCCCCCCCCC[P+](CCCCCC)(CCCCCC)CCCCCC.C(F)(F)(F)S(=O)(=O)[N-]S(=O)(=O)C(F)(F)F,C(CCC)CC[P+](CCCCCC)(CCCCCCCCCCCCCC)CCCCCC.O=S([N-]S(=O)(C(F)(F)F)=O)(=O)C(F)(F)F,17,1,424,17
303.0,0.1,0.143,Training,trihexyltetradecylphosphonium bis(trifluoromethylsulfonyl)imide,CCCCCCCCCCCCCC[P+](CCCCCC)(CCCCCC)CCCCCC.C(F)(F)(F)S(=O)(=O)[N-]S(=O)(=O)C(F)(F)F,C(CCC[P+](CCCCCC)(CCCCCC)CCCCCC)CCCCCCCCCC.O=S(C(F)(F)F)(=O)[N-]S(=O)(C(F)(F)F)=O,17,1,424,17
303.0,0.1,0.143,Training,trihexyltetradecylphosphonium bis(trifluoromethylsulfonyl)imide,CCCCCCCCCCCCCC[P+](CCCCCC)(CCCCCC)CCCCCC.C(F)(F)(F)S(=O)(=O)[N-]S(=O)(=O)C(F)(F)F,C(C[P+](CCCCCC)(CCCCCCCCCCCCCC)CCCCCC)CCCC.O=S(C(F)(F)F)(=O)[N-]S(=O)(C(F)(F)F)=O,17,1,424,17
303.0,0.1,0.143,Training,trihexyltetradecylphosphonium bis(trifluoromethylsulfonyl)imide,CCCCCCCCCCCCCC[P+](CCCCCC)(CCCCCC)CCCCCC.C(F)(F)(F)S(=O)(=O)[N-]S(=O)(=O)C(F)(F)F,C(CCCCCC[P+](CCCCCC)(CCCCCC)CCCCCC)CCCCCCC.C(F)(F)(F)S(=O)(=O)[N-]S(C(F)(F)F)(=O)=O,17,1,424,17
303.0,0.1,0.143,Training,trihexyltetradecylphosphonium bis(trifluoromethylsulfonyl)imide,CCCCCCCCCCCCCC[P+](CCCCCC)(CCCCCC)CCCCCC.C(F)(F)(F)S(=O)(=O)[N-]S(=O)(=O)C(F)(F)F,CCCCCC[P+](CCCCCCCCCCCCCC)(CCCCCC)CCCCCC.FC(F)(S(=O)(=O)[N-]S(=O)(=O)C(F)(F)F)F,17,1,424,17
303.0,0.1,0.143,Training,trihexyltetradecylphosphonium bis(trifluoromethylsulfonyl)imide,CCCCCCCCCCCCCC[P+](CCCCCC)(CCCCCC)CCCCCC.C(F)(F)(F)S(=O)(=O)[N-]S(=O)(=O)C(F)(F)F,C(CCC)CC[P+](CCCCCC)(CCCCCCCCCCCCCC)CCCCCC.O=S(C(F)(F)F)(=O)[N-]S(=O)(=O)C(F)(F)F,17,1,424,17
313.0,0.1,0.142,Training,trihexyltetradecylphosphonium bis(trifluoromethylsulfonyl)imide,CCCCCCCCCCCCCC[P+](CCCCCC)(CCCCCC)CCCCCC.C(F)(F)(F)S(=O)(=O)[N-]S(=O)(=O)C(F)(F)F,CCCCCCCCCCCCCC[P+](CCCCCC)(CCCCCC)CCCCCC.O=S(=O)([N-]S(=O)(=O)C(F)(F)F)C(F)(F)F,17,1,425,17
313.0,0.1,0.142,Training,trihexyltetradecylphosphonium bis(trifluoromethylsulfonyl)imide,CCCCCCCCCCCCCC[P+](CCCCCC)(CCCCCC)CCCCCC.C(F)(F)(F)S(=O)(=O)[N-]S(=O)(=O)C(F)(F)F,C(C)CCCC[P+](CCCCCC)(CCCCCC)CCCCCCCCCCCCCC.C(F)(F)(S(=O)([N-]S(=O)(=O)C(F)(F)F)=O)F,17,1,425,17
313.0,0.1,0.142,Training,trihexyltetradecylphosphonium bis(trifluoromethylsulfonyl)imide,CCCCCCCCCCCCCC[P+](CCCCCC)(CCCCCC)CCCCCC.C(F)(F)(F)S(=O)(=O)[N-]S(=O)(=O)C(F)(F)F,C(C)CCCCCCCCCCCC[P+](CCCCCC)(CCCCCC)CCCCCC.S(=O)(C(F)(F)F)(=O)[N-]S(=O)(C(F)(F)F)=O,17,1,425,17
313.0,0.1,0.142,Training,trihexyltetradecylphosphonium bis(trifluoromethylsulfonyl)imide,CCCCCCCCCCCCCC[P+](CCCCCC)(CCCCCC)CCCCCC.C(F)(F)(F)S(=O)(=O)[N-]S(=O)(=O)C(F)(F)F,C(CCCC[P+](CCCCCCCCCCCCCC)(CCCCCC)CCCCCC)C.FC(S(=O)([N-]S(=O)(C(F)(F)F)=O)=O)(F)F,17,1,425,17
313.0,0.1,0.142,Training,trihexyltetradecylphosphonium bis(trifluoromethylsulfonyl)imide,CCCCCCCCCCCCCC[P+](CCCCCC)(CCCCCC)CCCCCC.C(F)(F)(F)S(=O)(=O)[N-]S(=O)(=O)C(F)(F)F,CCCCCCCCCCCCCC[P+](CCCCCC)(CCCCCC)CCCCCC.O=S([N-]S(C(F)(F)F)(=O)=O)(=O)C(F)(F)F,17,1,425,17
313.0,0.1,0.142,Training,trihexyltetradecylphosphonium bis(trifluoromethylsulfonyl)imide,CCCCCCCCCCCCCC[P+](CCCCCC)(CCCCCC)CCCCCC.C(F)(F)(F)S(=O)(=O)[N-]S(=O)(=O)C(F)(F)F,C(CCC[P+](CCCCCCCCCCCCCC)(CCCCCC)CCCCCC)CC.O=S(C(F)(F)F)(=O)[N-]S(C(F)(F)F)(=O)=O,17,1,425,17
313.0,0.1,0.142,Training,trihexyltetradecylphosphonium bis(trifluoromethylsulfonyl)imide,CCCCCCCCCCCCCC[P+](CCCCCC)(CCCCCC)CCCCCC.C(F)(F)(F)S(=O)(=O)[N-]S(=O)(=O)C(F)(F)F,C(CCCC)C[P+](CCCCCC)(CCCCCCCCCCCCCC)CCCCCC.C(F)(S([N-]S(C(F)(F)F)(=O)=O)(=O)=O)(F)F,17,1,425,17
313.0,0.1,0.142,Training,trihexyltetradecylphosphonium bis(trifluoromethylsulfonyl)imide,CCCCCCCCCCCCCC[P+](CCCCCC)(CCCCCC)CCCCCC.C(F)(F)(F)S(=O)(=O)[N-]S(=O)(=O)C(F)(F)F,C(C)CCCC[P+](CCCCCC)(CCCCCC)CCCCCCCCCCCCCC.S(=O)(C(F)(F)F)(=O)[N-]S(=O)(C(F)(F)F)=O,17,1,425,17
313.0,0.1,0.142,Training,trihexyltetradecylphosphonium bis(trifluoromethylsulfonyl)imide,CCCCCCCCCCCCCC[P+](CCCCCC)(CCCCCC)CCCCCC.C(F)(F)(F)S(=O)(=O)[N-]S(=O)(=O)C(F)(F)F,C(CCC)CCCCCCCCCC[P+](CCCCCC)(CCCCCC)CCCCCC.FC(S(=O)([N-]S(=O)(=O)C(F)(F)F)=O)(F)F,17,1,425,17
313.0,0.1,0.142,Training,trihexyltetradecylphosphonium bis(trifluoromethylsulfonyl)imide,CCCCCCCCCCCCCC[P+](CCCCCC)(CCCCCC)CCCCCC.C(F)(F)(F)S(=O)(=O)[N-]S(=O)(=O)C(F)(F)F,C(F)(S([N-]S(C(F)(F)F)(=O)=O)(=O)=O)(F)F.CCCCCC[P+](CCCCCC)(CCCCCC)CCCCCCCCCCCCCC,17,1,425,17
323.0,0.1,0.141,Training,trihexyltetradecylphosphonium bis(trifluoromethylsulfonyl)imide,CCCCCCCCCCCCCC[P+](CCCCCC)(CCCCCC)CCCCCC.C(F)(F)(F)S(=O)(=O)[N-]S(=O)(=O)C(F)(F)F,CCCCCCCCCCCCCC[P+](CCCCCC)(CCCCCC)CCCCCC.O=S(=O)([N-]S(=O)(=O)C(F)(F)F)C(F)(F)F,17,1,426,17
323.0,0.1,0.141,Training,trihexyltetradecylphosphonium bis(trifluoromethylsulfonyl)imide,CCCCCCCCCCCCCC[P+](CCCCCC)(CCCCCC)CCCCCC.C(F)(F)(F)S(=O)(=O)[N-]S(=O)(=O)C(F)(F)F,CCCCCC[P+](CCCCCC)(CCCCCCCCCCCCCC)CCCCCC.FC(F)(F)S(=O)([N-]S(=O)(C(F)(F)F)=O)=O,17,1,426,17
323.0,0.1,0.141,Training,trihexyltetradecylphosphonium bis(trifluoromethylsulfonyl)imide,CCCCCCCCCCCCCC[P+](CCCCCC)(CCCCCC)CCCCCC.C(F)(F)(F)S(=O)(=O)[N-]S(=O)(=O)C(F)(F)F,C(CCCCCCCCCCCCC)[P+](CCCCCC)(CCCCCC)CCCCCC.C(S([N-]S(=O)(=O)C(F)(F)F)(=O)=O)(F)(F)F,17,1,426,17
323.0,0.1,0.141,Training,trihexyltetradecylphosphonium bis(trifluoromethylsulfonyl)imide,CCCCCCCCCCCCCC[P+](CCCCCC)(CCCCCC)CCCCCC.C(F)(F)(F)S(=O)(=O)[N-]S(=O)(=O)C(F)(F)F,C(CCCC)C[P+](CCCCCCCCCCCCCC)(CCCCCC)CCCCCC.[N-](S(=O)(=O)C(F)(F)F)S(C(F)(F)F)(=O)=O,17,1,426,17
323.0,0.1,0.141,Training,trihexyltetradecylphosphonium bis(trifluoromethylsulfonyl)imide,CCCCCCCCCCCCCC[P+](CCCCCC)(CCCCCC)CCCCCC.C(F)(F)(F)S(=O)(=O)[N-]S(=O)(=O)C(F)(F)F,C(CCCC)C[P+](CCCCCCCCCCCCCC)(CCCCCC)CCCCCC.FC(S([N-]S(=O)(C(F)(F)F)=O)(=O)=O)(F)F,17,1,426,17
323.0,0.1,0.141,Training,trihexyltetradecylphosphonium bis(trifluoromethylsulfonyl)imide,CCCCCCCCCCCCCC[P+](CCCCCC)(CCCCCC)CCCCCC.C(F)(F)(F)S(=O)(=O)[N-]S(=O)(=O)C(F)(F)F,CCCCCC[P+](CCCCCCCCCCCCCC)(CCCCCC)CCCCCC.FC(S(=O)(=O)[N-]S(=O)(=O)C(F)(F)F)(F)F,17,1,426,17
323.0,0.1,0.141,Training,trihexyltetradecylphosphonium bis(trifluoromethylsulfonyl)imide,CCCCCCCCCCCCCC[P+](CCCCCC)(CCCCCC)CCCCCC.C(F)(F)(F)S(=O)(=O)[N-]S(=O)(=O)C(F)(F)F,C(CCCCCCCC[P+](CCCCCC)(CCCCCC)CCCCCC)CCCCC.O=S([N-]S(C(F)(F)F)(=O)=O)(=O)C(F)(F)F,17,1,426,17
323.0,0.1,0.141,Training,trihexyltetradecylphosphonium bis(trifluoromethylsulfonyl)imide,CCCCCCCCCCCCCC[P+](CCCCCC)(CCCCCC)CCCCCC.C(F)(F)(F)S(=O)(=O)[N-]S(=O)(=O)C(F)(F)F,C(CCCCCCC)CCCCCC[P+](CCCCCC)(CCCCCC)CCCCCC.FC(S([N-]S(C(F)(F)F)(=O)=O)(=O)=O)(F)F,17,1,426,17
323.0,0.1,0.141,Training,trihexyltetradecylphosphonium bis(trifluoromethylsulfonyl)imide,CCCCCCCCCCCCCC[P+](CCCCCC)(CCCCCC)CCCCCC.C(F)(F)(F)S(=O)(=O)[N-]S(=O)(=O)C(F)(F)F,C(CCCCCCCCCC[P+](CCCCCC)(CCCCCC)CCCCCC)CCC.FC(F)(S(=O)(=O)[N-]S(=O)(=O)C(F)(F)F)F,17,1,426,17
323.0,0.1,0.141,Training,trihexyltetradecylphosphonium bis(trifluoromethylsulfonyl)imide,CCCCCCCCCCCCCC[P+](CCCCCC)(CCCCCC)CCCCCC.C(F)(F)(F)S(=O)(=O)[N-]S(=O)(=O)C(F)(F)F,C(CCCC)C[P+](CCCCCC)(CCCCCC)CCCCCCCCCCCCCC.FC(S(=O)(=O)[N-]S(C(F)(F)F)(=O)=O)(F)F,17,1,426,17
333.0,0.1,0.141,Training,trihexyltetradecylphosphonium bis(trifluoromethylsulfonyl)imide,CCCCCCCCCCCCCC[P+](CCCCCC)(CCCCCC)CCCCCC.C(F)(F)(F)S(=O)(=O)[N-]S(=O)(=O)C(F)(F)F,CCCCCCCCCCCCCC[P+](CCCCCC)(CCCCCC)CCCCCC.O=S(=O)([N-]S(=O)(=O)C(F)(F)F)C(F)(F)F,17,1,427,17
333.0,0.1,0.141,Training,trihexyltetradecylphosphonium bis(trifluoromethylsulfonyl)imide,CCCCCCCCCCCCCC[P+](CCCCCC)(CCCCCC)CCCCCC.C(F)(F)(F)S(=O)(=O)[N-]S(=O)(=O)C(F)(F)F,C(CCCCC)[P+](CCCCCC)(CCCCCC)CCCCCCCCCCCCCC.S([N-]S(=O)(C(F)(F)F)=O)(=O)(=O)C(F)(F)F,17,1,427,17
333.0,0.1,0.141,Training,trihexyltetradecylphosphonium bis(trifluoromethylsulfonyl)imide,CCCCCCCCCCCCCC[P+](CCCCCC)(CCCCCC)CCCCCC.C(F)(F)(F)S(=O)(=O)[N-]S(=O)(=O)C(F)(F)F,C(CCCCCCCCCC)CCC[P+](CCCCCC)(CCCCCC)CCCCCC.O=S(=O)(C(F)(F)F)[N-]S(=O)(=O)C(F)(F)F,17,1,427,17
333.0,0.1,0.141,Training,trihexyltetradecylphosphonium bis(trifluoromethylsulfonyl)imide,CCCCCCCCCCCCCC[P+](CCCCCC)(CCCCCC)CCCCCC.C(F)(F)(F)S(=O)(=O)[N-]S(=O)(=O)C(F)(F)F,C(CCCCCCCCC)CCCC[P+](CCCCCC)(CCCCCC)CCCCCC.S(=O)(=O)(C(F)(F)F)[N-]S(=O)(=O)C(F)(F)F,17,1,427,17
333.0,0.1,0.141,Training,trihexyltetradecylphosphonium bis(trifluoromethylsulfonyl)imide,CCCCCCCCCCCCCC[P+](CCCCCC)(CCCCCC)CCCCCC.C(F)(F)(F)S(=O)(=O)[N-]S(=O)(=O)C(F)(F)F,C(CCC[P+](CCCCCC)(CCCCCC)CCCCCC)CCCCCCCCCC.FC(S([N-]S(C(F)(F)F)(=O)=O)(=O)=O)(F)F,17,1,427,17
333.0,0.1,0.141,Training,trihexyltetradecylphosphonium bis(trifluoromethylsulfonyl)imide,CCCCCCCCCCCCCC[P+](CCCCCC)(CCCCCC)CCCCCC.C(F)(F)(F)S(=O)(=O)[N-]S(=O)(=O)C(F)(F)F,C(CCCCCCCCCCC[P+](CCCCCC)(CCCCCC)CCCCCC)CC.S(=O)([N-]S(=O)(=O)C(F)(F)F)(C(F)(F)F)=O,17,1,427,17
333.0,0.1,0.141,Training,trihexyltetradecylphosphonium bis(trifluoromethylsulfonyl)imide,CCCCCCCCCCCCCC[P+](CCCCCC)(CCCCCC)CCCCCC.C(F)(F)(F)S(=O)(=O)[N-]S(=O)(=O)C(F)(F)F,CCCCCC[P+](CCCCCC)(CCCCCC)CCCCCCCCCCCCCC.O=S(=O)([N-]S(=O)(=O)C(F)(F)F)C(F)(F)F,17,1,427,17
333.0,0.1,0.141,Training,trihexyltetradecylphosphonium bis(trifluoromethylsulfonyl)imide,CCCCCCCCCCCCCC[P+](CCCCCC)(CCCCCC)CCCCCC.C(F)(F)(F)S(=O)(=O)[N-]S(=O)(=O)C(F)(F)F,C(CCCCCCCCCCC[P+](CCCCCC)(CCCCCC)CCCCCC)CC.S([N-]S(C(F)(F)F)(=O)=O)(=O)(=O)C(F)(F)F,17,1,427,17
333.0,0.1,0.141,Training,trihexyltetradecylphosphonium bis(trifluoromethylsulfonyl)imide,CCCCCCCCCCCCCC[P+](CCCCCC)(CCCCCC)CCCCCC.C(F)(F)(F)S(=O)(=O)[N-]S(=O)(=O)C(F)(F)F,C(CCCCC)[P+](CCCCCCCCCCCCCC)(CCCCCC)CCCCCC.S(C(F)(F)F)(=O)(=O)[N-]S(=O)(C(F)(F)F)=O,17,1,427,17
333.0,0.1,0.141,Training,trihexyltetradecylphosphonium bis(trifluoromethylsulfonyl)imide,CCCCCCCCCCCCCC[P+](CCCCCC)(CCCCCC)CCCCCC.C(F)(F)(F)S(=O)(=O)[N-]S(=O)(=O)C(F)(F)F,C(CC[P+](CCCCCC)(CCCCCC)CCCCCCCCCCCCCC)CCC.[N-](S(C(F)(F)F)(=O)=O)S(C(F)(F)F)(=O)=O,17,1,427,17