T/K,P/MPa,TC/W m-1 K-1,Data type,Name,SMILES,Normalized SMILES,index,P/bar,RANDOM,IL
343.0,0.1,0.128,Training,1-decyl-3-methylimidazolium bis(trifluoromethylsulfonyl)imide,CCCCCCCCCCN1C=C[N+](=C1)C.C(F)(F)(F)S(=O)(=O)[N-]S(=O)(=O)C(F)(F)F,FC(S(=O)([N-]S(=O)(C(F)(F)F)=O)=O)(F)F.c1c[n+](cn1CCCCCCCCCC)C,31,1,407,31
343.0,0.1,0.128,Training,1-decyl-3-methylimidazolium bis(trifluoromethylsulfonyl)imide,CCCCCCCCCCN1C=C[N+](=C1)C.C(F)(F)(F)S(=O)(=O)[N-]S(=O)(=O)C(F)(F)F,C(CCCCCCCCn1cc[n+](c1)C)C.O=S([N-]S(=O)(C(F)(F)F)=O)(C(F)(F)F)=O,31,1,407,31
343.0,0.1,0.128,Training,1-decyl-3-methylimidazolium bis(trifluoromethylsulfonyl)imide,CCCCCCCCCCN1C=C[N+](=C1)C.C(F)(F)(F)S(=O)(=O)[N-]S(=O)(=O)C(F)(F)F,O=S([N-]S(C(F)(F)F)(=O)=O)(=O)C(F)(F)F.c1[n+](cn(CCCCCCCCCC)c1)C,31,1,407,31
343.0,0.1,0.128,Training,1-decyl-3-methylimidazolium bis(trifluoromethylsulfonyl)imide,CCCCCCCCCCN1C=C[N+](=C1)C.C(F)(F)(F)S(=O)(=O)[N-]S(=O)(=O)C(F)(F)F,C(CCCCCCCC)Cn1cc[n+](C)c1.FC(S(=O)([N-]S(=O)(=O)C(F)(F)F)=O)(F)F,31,1,407,31
343.0,0.1,0.128,Training,1-decyl-3-methylimidazolium bis(trifluoromethylsulfonyl)imide,CCCCCCCCCCN1C=C[N+](=C1)C.C(F)(F)(F)S(=O)(=O)[N-]S(=O)(=O)C(F)(F)F,CCCCCCCCCCn1c[n+](C)cc1.FC(F)(S(=O)(=O)[N-]S(C(F)(F)F)(=O)=O)F,31,1,407,31
343.0,0.1,0.128,Training,1-decyl-3-methylimidazolium bis(trifluoromethylsulfonyl)imide,CCCCCCCCCCN1C=C[N+](=C1)C.C(F)(F)(F)S(=O)(=O)[N-]S(=O)(=O)C(F)(F)F,C(S(=O)([N-]S(=O)(C(F)(F)F)=O)=O)(F)(F)F.[n+]1(C)cn(CCCCCCCCCC)cc1,31,1,407,31
343.0,0.1,0.128,Training,1-decyl-3-methylimidazolium bis(trifluoromethylsulfonyl)imide,CCCCCCCCCCN1C=C[N+](=C1)C.C(F)(F)(F)S(=O)(=O)[N-]S(=O)(=O)C(F)(F)F,C(CCCCCCCCC)n1c[n+](C)cc1.O=S([N-]S(=O)(C(F)(F)F)=O)(C(F)(F)F)=O,31,1,407,31
353.0,0.1,0.128,Training,1-decyl-3-methylimidazolium bis(trifluoromethylsulfonyl)imide,CCCCCCCCCCN1C=C[N+](=C1)C.C(F)(F)(F)S(=O)(=O)[N-]S(=O)(=O)C(F)(F)F,CCCCCCCCCCn1cc[n+](C)c1.O=S(=O)([N-]S(=O)(=O)C(F)(F)F)C(F)(F)F,31,1,408,31
353.0,0.1,0.128,Training,1-decyl-3-methylimidazolium bis(trifluoromethylsulfonyl)imide,CCCCCCCCCCN1C=C[N+](=C1)C.C(F)(F)(F)S(=O)(=O)[N-]S(=O)(=O)C(F)(F)F,FC(F)(F)S(=O)([N-]S(=O)(C(F)(F)F)=O)=O.c1c[n+](cn1CCCCCCCCCC)C,31,1,408,31
353.0,0.1,0.128,Training,1-decyl-3-methylimidazolium bis(trifluoromethylsulfonyl)imide,CCCCCCCCCCN1C=C[N+](=C1)C.C(F)(F)(F)S(=O)(=O)[N-]S(=O)(=O)C(F)(F)F,C(CC)CCCCCCCn1cc[n+](C)c1.[N-](S(=O)(=O)C(F)(F)F)S(=O)(C(F)(F)F)=O,31,1,408,31
353.0,0.1,0.128,Training,1-decyl-3-methylimidazolium bis(trifluoromethylsulfonyl)imide,CCCCCCCCCCN1C=C[N+](=C1)C.C(F)(F)(F)S(=O)(=O)[N-]S(=O)(=O)C(F)(F)F,C(C)CCCCCCCCn1cc[n+](c1)C.O=S(C(F)(F)F)(=O)[N-]S(C(F)(F)F)(=O)=O,31,1,408,31
353.0,0.1,0.128,Training,1-decyl-3-methylimidazolium bis(trifluoromethylsulfonyl)imide,CCCCCCCCCCN1C=C[N+](=C1)C.C(F)(F)(F)S(=O)(=O)[N-]S(=O)(=O)C(F)(F)F,C(CCCCCCCn1c[n+](C)cc1)CC.O=S([N-]S(=O)(C(F)(F)F)=O)(C(F)(F)F)=O,31,1,408,31
353.0,0.1,0.128,Training,1-decyl-3-methylimidazolium bis(trifluoromethylsulfonyl)imide,CCCCCCCCCCN1C=C[N+](=C1)C.C(F)(F)(F)S(=O)(=O)[N-]S(=O)(=O)C(F)(F)F,C(CCCCCCn1cc[n+](C)c1)CCC.O=S(=O)([N-]S(=O)(=O)C(F)(F)F)C(F)(F)F,31,1,408,31
353.0,0.1,0.128,Training,1-decyl-3-methylimidazolium bis(trifluoromethylsulfonyl)imide,CCCCCCCCCCN1C=C[N+](=C1)C.C(F)(F)(F)S(=O)(=O)[N-]S(=O)(=O)C(F)(F)F,C(CC)CCCCCCCn1c[n+](C)cc1.FC(S(=O)([N-]S(=O)(C(F)(F)F)=O)=O)(F)F,31,1,408,31
353.0,0.1,0.128,Training,1-decyl-3-methylimidazolium bis(trifluoromethylsulfonyl)imide,CCCCCCCCCCN1C=C[N+](=C1)C.C(F)(F)(F)S(=O)(=O)[N-]S(=O)(=O)C(F)(F)F,C(CCCCCC)CCCn1c[n+](cc1)C.FC(S(=O)([N-]S(C(F)(F)F)(=O)=O)=O)(F)F,31,1,408,31
353.0,0.1,0.128,Training,1-decyl-3-methylimidazolium bis(trifluoromethylsulfonyl)imide,CCCCCCCCCCN1C=C[N+](=C1)C.C(F)(F)(F)S(=O)(=O)[N-]S(=O)(=O)C(F)(F)F,C(CCCn1c[n+](C)cc1)CCCCCC.FC(F)(S([N-]S(=O)(C(F)(F)F)=O)(=O)=O)F,31,1,408,31
353.0,0.1,0.128,Training,1-decyl-3-methylimidazolium bis(trifluoromethylsulfonyl)imide,CCCCCCCCCCN1C=C[N+](=C1)C.C(F)(F)(F)S(=O)(=O)[N-]S(=O)(=O)C(F)(F)F,C(CCCCCCn1c[n+](cc1)C)CCC.S(=O)(C(F)(F)F)([N-]S(C(F)(F)F)(=O)=O)=O,31,1,408,31
293.0,0.1,0.147,Training,1-butyl-3-methylimidazolium trifluoromethanesulfonate,CCCCN1C=C[N+](=C1)C.C(F)(F)(F)S(=O)(=O)[O-],CCCCn1cc[n+](C)c1.O=S(=O)([O-])C(F)(F)F,6,1,409,6
293.0,0.1,0.147,Training,1-butyl-3-methylimidazolium trifluoromethanesulfonate,CCCCN1C=C[N+](=C1)C.C(F)(F)(F)S(=O)(=O)[O-],FC(F)(S(=O)([O-])=O)F.c1[n+](C)cn(c1)CCCC,6,1,409,6
293.0,0.1,0.147,Training,1-butyl-3-methylimidazolium trifluoromethanesulfonate,CCCCN1C=C[N+](=C1)C.C(F)(F)(F)S(=O)(=O)[O-],S(=O)(=O)([O-])C(F)(F)F.[n+]1(cn(CCCC)cc1)C,6,1,409,6
293.0,0.1,0.147,Training,1-butyl-3-methylimidazolium trifluoromethanesulfonate,CCCCN1C=C[N+](=C1)C.C(F)(F)(F)S(=O)(=O)[O-],C(CC)Cn1cc[n+](C)c1.FC(F)(S(=O)(=O)[O-])F,6,1,409,6
293.0,0.1,0.147,Training,1-butyl-3-methylimidazolium trifluoromethanesulfonate,CCCCN1C=C[N+](=C1)C.C(F)(F)(F)S(=O)(=O)[O-],FC(S(=O)(=O)[O-])(F)F.n1(c[n+](C)cc1)CCCC,6,1,409,6
293.0,0.1,0.147,Training,1-butyl-3-methylimidazolium trifluoromethanesulfonate,CCCCN1C=C[N+](=C1)C.C(F)(F)(F)S(=O)(=O)[O-],[O-]S(=O)(C(F)(F)F)=O.c1c[n+](cn1CCCC)C,6,1,409,6
293.0,0.1,0.147,Training,1-butyl-3-methylimidazolium trifluoromethanesulfonate,CCCCN1C=C[N+](=C1)C.C(F)(F)(F)S(=O)(=O)[O-],C[n+]1ccn(c1)CCCC.FC(F)(F)S([O-])(=O)=O,6,1,409,6
293.0,0.1,0.147,Training,1-butyl-3-methylimidazolium trifluoromethanesulfonate,CCCCN1C=C[N+](=C1)C.C(F)(F)(F)S(=O)(=O)[O-],C(S(=O)(=O)[O-])(F)(F)F.C[n+]1ccn(CCCC)c1,6,1,409,6
293.0,0.1,0.147,Training,1-butyl-3-methylimidazolium trifluoromethanesulfonate,CCCCN1C=C[N+](=C1)C.C(F)(F)(F)S(=O)(=O)[O-],O=S([O-])(=O)C(F)(F)F.c1cn(CCCC)c[n+]1C,6,1,409,6
293.0,0.1,0.147,Training,1-butyl-3-methylimidazolium trifluoromethanesulfonate,CCCCN1C=C[N+](=C1)C.C(F)(F)(F)S(=O)(=O)[O-],C(CCC)n1cc[n+](C)c1.FC(F)(F)S([O-])(=O)=O,6,1,409,6
303.0,0.1,0.146,Training,1-butyl-3-methylimidazolium trifluoromethanesulfonate,CCCCN1C=C[N+](=C1)C.C(F)(F)(F)S(=O)(=O)[O-],CCCCn1cc[n+](C)c1.O=S(=O)([O-])C(F)(F)F,6,1,410,6
303.0,0.1,0.146,Training,1-butyl-3-methylimidazolium trifluoromethanesulfonate,CCCCN1C=C[N+](=C1)C.C(F)(F)(F)S(=O)(=O)[O-],[O-]S(=O)(C(F)(F)F)=O.c1[n+](cn(CCCC)c1)C,6,1,410,6
303.0,0.1,0.146,Training,1-butyl-3-methylimidazolium trifluoromethanesulfonate,CCCCN1C=C[N+](=C1)C.C(F)(F)(F)S(=O)(=O)[O-],[O-]S(C(F)(F)F)(=O)=O.[n+]1(C)ccn(CCCC)c1,6,1,410,6
303.0,0.1,0.146,Training,1-butyl-3-methylimidazolium trifluoromethanesulfonate,CCCCN1C=C[N+](=C1)C.C(F)(F)(F)S(=O)(=O)[O-],S(C(F)(F)F)(=O)([O-])=O.[n+]1(C)cn(CCCC)cc1,6,1,410,6
303.0,0.1,0.146,Training,1-butyl-3-methylimidazolium trifluoromethanesulfonate,CCCCN1C=C[N+](=C1)C.C(F)(F)(F)S(=O)(=O)[O-],C(n1cc[n+](c1)C)CCC.FC(S([O-])(=O)=O)(F)F,6,1,410,6
303.0,0.1,0.146,Training,1-butyl-3-methylimidazolium trifluoromethanesulfonate,CCCCN1C=C[N+](=C1)C.C(F)(F)(F)S(=O)(=O)[O-],C(F)(F)(S(=O)([O-])=O)F.CCCCn1c[n+](C)cc1,6,1,410,6
303.0,0.1,0.146,Training,1-butyl-3-methylimidazolium trifluoromethanesulfonate,CCCCN1C=C[N+](=C1)C.C(F)(F)(F)S(=O)(=O)[O-],C(n1c[n+](C)cc1)CCC.S(C(F)(F)F)([O-])(=O)=O,6,1,410,6
303.0,0.1,0.146,Training,1-butyl-3-methylimidazolium trifluoromethanesulfonate,CCCCN1C=C[N+](=C1)C.C(F)(F)(F)S(=O)(=O)[O-],C[n+]1ccn(CCCC)c1.FC(S([O-])(=O)=O)(F)F,6,1,410,6
303.0,0.1,0.146,Training,1-butyl-3-methylimidazolium trifluoromethanesulfonate,CCCCN1C=C[N+](=C1)C.C(F)(F)(F)S(=O)(=O)[O-],C(CC)Cn1c[n+](C)cc1.S(C(F)(F)F)(=O)([O-])=O,6,1,410,6
303.0,0.1,0.146,Training,1-butyl-3-methylimidazolium trifluoromethanesulfonate,CCCCN1C=C[N+](=C1)C.C(F)(F)(F)S(=O)(=O)[O-],O=S([O-])(=O)C(F)(F)F.c1cn(CCCC)c[n+]1C,6,1,410,6
313.0,0.1,0.145,Training,1-butyl-3-methylimidazolium trifluoromethanesulfonate,CCCCN1C=C[N+](=C1)C.C(F)(F)(F)S(=O)(=O)[O-],CCCCn1cc[n+](C)c1.O=S(=O)([O-])C(F)(F)F,6,1,411,6
313.0,0.1,0.145,Training,1-butyl-3-methylimidazolium trifluoromethanesulfonate,CCCCN1C=C[N+](=C1)C.C(F)(F)(F)S(=O)(=O)[O-],FC(S([O-])(=O)=O)(F)F.n1(CCCC)c[n+](C)cc1,6,1,411,6
313.0,0.1,0.145,Training,1-butyl-3-methylimidazolium trifluoromethanesulfonate,CCCCN1C=C[N+](=C1)C.C(F)(F)(F)S(=O)(=O)[O-],C[n+]1cn(cc1)CCCC.FC(S(=O)(=O)[O-])(F)F,6,1,411,6
313.0,0.1,0.145,Training,1-butyl-3-methylimidazolium trifluoromethanesulfonate,CCCCN1C=C[N+](=C1)C.C(F)(F)(F)S(=O)(=O)[O-],C(Cn1c[n+](C)cc1)CC.C(F)(F)(F)S(=O)(=O)[O-],6,1,411,6
313.0,0.1,0.145,Training,1-butyl-3-methylimidazolium trifluoromethanesulfonate,CCCCN1C=C[N+](=C1)C.C(F)(F)(F)S(=O)(=O)[O-],C(F)(F)(F)S(=O)([O-])=O.n1(CCCC)cc[n+](C)c1,6,1,411,6
313.0,0.1,0.145,Training,1-butyl-3-methylimidazolium trifluoromethanesulfonate,CCCCN1C=C[N+](=C1)C.C(F)(F)(F)S(=O)(=O)[O-],CCCCn1c[n+](cc1)C.FC(S([O-])(=O)=O)(F)F,6,1,411,6
313.0,0.1,0.145,Training,1-butyl-3-methylimidazolium trifluoromethanesulfonate,CCCCN1C=C[N+](=C1)C.C(F)(F)(F)S(=O)(=O)[O-],FC(F)(S([O-])(=O)=O)F.[n+]1(cn(CCCC)cc1)C,6,1,411,6
313.0,0.1,0.145,Training,1-butyl-3-methylimidazolium trifluoromethanesulfonate,CCCCN1C=C[N+](=C1)C.C(F)(F)(F)S(=O)(=O)[O-],CCCCn1c[n+](C)cc1.FC(S(=O)([O-])=O)(F)F,6,1,411,6
313.0,0.1,0.145,Training,1-butyl-3-methylimidazolium trifluoromethanesulfonate,CCCCN1C=C[N+](=C1)C.C(F)(F)(F)S(=O)(=O)[O-],[O-]S(C(F)(F)F)(=O)=O.c1[n+](C)cn(CCCC)c1,6,1,411,6
313.0,0.1,0.145,Training,1-butyl-3-methylimidazolium trifluoromethanesulfonate,CCCCN1C=C[N+](=C1)C.C(F)(F)(F)S(=O)(=O)[O-],C(S(=O)([O-])=O)(F)(F)F.c1[n+](C)cn(c1)CCCC,6,1,411,6
323.0,0.1,0.144,Training,1-butyl-3-methylimidazolium trifluoromethanesulfonate,CCCCN1C=C[N+](=C1)C.C(F)(F)(F)S(=O)(=O)[O-],CCCCn1cc[n+](C)c1.O=S(=O)([O-])C(F)(F)F,6,1,412,6
323.0,0.1,0.144,Training,1-butyl-3-methylimidazolium trifluoromethanesulfonate,CCCCN1C=C[N+](=C1)C.C(F)(F)(F)S(=O)(=O)[O-],FC(F)(F)S(=O)([O-])=O.c1c[n+](cn1CCCC)C,6,1,412,6
323.0,0.1,0.144,Training,1-butyl-3-methylimidazolium trifluoromethanesulfonate,CCCCN1C=C[N+](=C1)C.C(F)(F)(F)S(=O)(=O)[O-],CCCCn1cc[n+](c1)C.O=S([O-])(C(F)(F)F)=O,6,1,412,6
323.0,0.1,0.144,Training,1-butyl-3-methylimidazolium trifluoromethanesulfonate,CCCCN1C=C[N+](=C1)C.C(F)(F)(F)S(=O)(=O)[O-],C(Cn1c[n+](C)cc1)CC.O=S(C(F)(F)F)([O-])=O,6,1,412,6
323.0,0.1,0.144,Training,1-butyl-3-methylimidazolium trifluoromethanesulfonate,CCCCN1C=C[N+](=C1)C.C(F)(F)(F)S(=O)(=O)[O-],O=S(C(F)(F)F)(=O)[O-].[n+]1(C)cn(cc1)CCCC,6,1,412,6
323.0,0.1,0.144,Training,1-butyl-3-methylimidazolium trifluoromethanesulfonate,CCCCN1C=C[N+](=C1)C.C(F)(F)(F)S(=O)(=O)[O-],C(CCn1c[n+](cc1)C)C.FC(S(=O)(=O)[O-])(F)F,6,1,412,6
323.0,0.1,0.144,Training,1-butyl-3-methylimidazolium trifluoromethanesulfonate,CCCCN1C=C[N+](=C1)C.C(F)(F)(F)S(=O)(=O)[O-],C(CCn1c[n+](cc1)C)C.FC(F)(S(=O)([O-])=O)F,6,1,412,6
323.0,0.1,0.144,Training,1-butyl-3-methylimidazolium trifluoromethanesulfonate,CCCCN1C=C[N+](=C1)C.C(F)(F)(F)S(=O)(=O)[O-],FC(F)(F)S(=O)(=O)[O-].c1n(CCCC)c[n+](C)c1,6,1,412,6
323.0,0.1,0.144,Training,1-butyl-3-methylimidazolium trifluoromethanesulfonate,CCCCN1C=C[N+](=C1)C.C(F)(F)(F)S(=O)(=O)[O-],C[n+]1ccn(c1)CCCC.O=S(C(F)(F)F)(=O)[O-],6,1,412,6
323.0,0.1,0.144,Training,1-butyl-3-methylimidazolium trifluoromethanesulfonate,CCCCN1C=C[N+](=C1)C.C(F)(F)(F)S(=O)(=O)[O-],CCCCn1cc[n+](C)c1.FC(F)(S(=O)([O-])=O)F,6,1,412,6
333.0,0.1,0.144,Training,1-butyl-3-methylimidazolium trifluoromethanesulfonate,CCCCN1C=C[N+](=C1)C.C(F)(F)(F)S(=O)(=O)[O-],CCCCn1cc[n+](C)c1.O=S(=O)([O-])C(F)(F)F,6,1,413,6
333.0,0.1,0.144,Training,1-butyl-3-methylimidazolium trifluoromethanesulfonate,CCCCN1C=C[N+](=C1)C.C(F)(F)(F)S(=O)(=O)[O-],[O-]S(=O)(=O)C(F)(F)F.c1n(cc[n+]1C)CCCC,6,1,413,6
333.0,0.1,0.144,Training,1-butyl-3-methylimidazolium trifluoromethanesulfonate,CCCCN1C=C[N+](=C1)C.C(F)(F)(F)S(=O)(=O)[O-],C(CCC)n1c[n+](C)cc1.C(S(=O)([O-])=O)(F)(F)F,6,1,413,6
333.0,0.1,0.144,Training,1-butyl-3-methylimidazolium trifluoromethanesulfonate,CCCCN1C=C[N+](=C1)C.C(F)(F)(F)S(=O)(=O)[O-],FC(F)(F)S(=O)([O-])=O.[n+]1(C)ccn(CCCC)c1,6,1,413,6
333.0,0.1,0.144,Training,1-butyl-3-methylimidazolium trifluoromethanesulfonate,CCCCN1C=C[N+](=C1)C.C(F)(F)(F)S(=O)(=O)[O-],FC(S(=O)([O-])=O)(F)F.n1(CCCC)c[n+](cc1)C,6,1,413,6
333.0,0.1,0.144,Training,1-butyl-3-methylimidazolium trifluoromethanesulfonate,CCCCN1C=C[N+](=C1)C.C(F)(F)(F)S(=O)(=O)[O-],C(S(=O)([O-])=O)(F)(F)F.n1(CCCC)c[n+](cc1)C,6,1,413,6
333.0,0.1,0.144,Training,1-butyl-3-methylimidazolium trifluoromethanesulfonate,CCCCN1C=C[N+](=C1)C.C(F)(F)(F)S(=O)(=O)[O-],FC(F)(F)S([O-])(=O)=O.n1(CCCC)cc[n+](c1)C,6,1,413,6
333.0,0.1,0.144,Training,1-butyl-3-methylimidazolium trifluoromethanesulfonate,CCCCN1C=C[N+](=C1)C.C(F)(F)(F)S(=O)(=O)[O-],C[n+]1ccn(c1)CCCC.FC(F)(S(=O)([O-])=O)F,6,1,413,6
333.0,0.1,0.144,Training,1-butyl-3-methylimidazolium trifluoromethanesulfonate,CCCCN1C=C[N+](=C1)C.C(F)(F)(F)S(=O)(=O)[O-],C(CCn1c[n+](C)cc1)C.[O-]S(C(F)(F)F)(=O)=O,6,1,413,6
333.0,0.1,0.144,Training,1-butyl-3-methylimidazolium trifluoromethanesulfonate,CCCCN1C=C[N+](=C1)C.C(F)(F)(F)S(=O)(=O)[O-],C[n+]1ccn(CCCC)c1.FC(S(=O)(=O)[O-])(F)F,6,1,413,6
343.0,0.1,0.143,Training,1-butyl-3-methylimidazolium trifluoromethanesulfonate,CCCCN1C=C[N+](=C1)C.C(F)(F)(F)S(=O)(=O)[O-],CCCCn1cc[n+](C)c1.O=S(=O)([O-])C(F)(F)F,6,1,414,6
343.0,0.1,0.143,Training,1-butyl-3-methylimidazolium trifluoromethanesulfonate,CCCCN1C=C[N+](=C1)C.C(F)(F)(F)S(=O)(=O)[O-],FC(S([O-])(=O)=O)(F)F.n1(CCCC)cc[n+](c1)C,6,1,414,6
343.0,0.1,0.143,Training,1-butyl-3-methylimidazolium trifluoromethanesulfonate,CCCCN1C=C[N+](=C1)C.C(F)(F)(F)S(=O)(=O)[O-],C(Cn1c[n+](cc1)C)CC.O=S(C(F)(F)F)([O-])=O,6,1,414,6
343.0,0.1,0.143,Training,1-butyl-3-methylimidazolium trifluoromethanesulfonate,CCCCN1C=C[N+](=C1)C.C(F)(F)(F)S(=O)(=O)[O-],O=S([O-])(=O)C(F)(F)F.c1[n+](C)ccn1CCCC,6,1,414,6
343.0,0.1,0.143,Training,1-butyl-3-methylimidazolium trifluoromethanesulfonate,CCCCN1C=C[N+](=C1)C.C(F)(F)(F)S(=O)(=O)[O-],S(=O)([O-])(=O)C(F)(F)F.c1n(CCCC)cc[n+]1C,6,1,414,6
343.0,0.1,0.143,Training,1-butyl-3-methylimidazolium trifluoromethanesulfonate,CCCCN1C=C[N+](=C1)C.C(F)(F)(F)S(=O)(=O)[O-],O=S(=O)([O-])C(F)(F)F.c1cn(CCCC)c[n+]1C,6,1,414,6
343.0,0.1,0.143,Training,1-butyl-3-methylimidazolium trifluoromethanesulfonate,CCCCN1C=C[N+](=C1)C.C(F)(F)(F)S(=O)(=O)[O-],FC(F)(S(=O)([O-])=O)F.[n+]1(cn(CCCC)cc1)C,6,1,414,6
343.0,0.1,0.143,Training,1-butyl-3-methylimidazolium trifluoromethanesulfonate,CCCCN1C=C[N+](=C1)C.C(F)(F)(F)S(=O)(=O)[O-],O=S([O-])(=O)C(F)(F)F.c1c[n+](C)cn1CCCC,6,1,414,6
343.0,0.1,0.143,Training,1-butyl-3-methylimidazolium trifluoromethanesulfonate,CCCCN1C=C[N+](=C1)C.C(F)(F)(F)S(=O)(=O)[O-],FC(S([O-])(=O)=O)(F)F.c1n(cc[n+]1C)CCCC,6,1,414,6
343.0,0.1,0.143,Training,1-butyl-3-methylimidazolium trifluoromethanesulfonate,CCCCN1C=C[N+](=C1)C.C(F)(F)(F)S(=O)(=O)[O-],C(CCC)n1cc[n+](C)c1.FC(S([O-])(=O)=O)(F)F,6,1,414,6
353.0,0.1,0.142,Training,1-butyl-3-methylimidazolium trifluoromethanesulfonate,CCCCN1C=C[N+](=C1)C.C(F)(F)(F)S(=O)(=O)[O-],CCCCn1cc[n+](C)c1.O=S(=O)([O-])C(F)(F)F,6,1,415,6
353.0,0.1,0.142,Training,1-butyl-3-methylimidazolium trifluoromethanesulfonate,CCCCN1C=C[N+](=C1)C.C(F)(F)(F)S(=O)(=O)[O-],C(Cn1c[n+](cc1)C)CC.[O-]S(=O)(=O)C(F)(F)F,6,1,415,6
353.0,0.1,0.142,Training,1-butyl-3-methylimidazolium trifluoromethanesulfonate,CCCCN1C=C[N+](=C1)C.C(F)(F)(F)S(=O)(=O)[O-],C(n1c[n+](C)cc1)CCC.O=S(C(F)(F)F)([O-])=O,6,1,415,6
353.0,0.1,0.142,Training,1-butyl-3-methylimidazolium trifluoromethanesulfonate,CCCCN1C=C[N+](=C1)C.C(F)(F)(F)S(=O)(=O)[O-],FC(F)(F)S(=O)([O-])=O.c1c[n+](C)cn1CCCC,6,1,415,6
353.0,0.1,0.142,Training,1-butyl-3-methylimidazolium trifluoromethanesulfonate,CCCCN1C=C[N+](=C1)C.C(F)(F)(F)S(=O)(=O)[O-],C(F)(S(=O)(=O)[O-])(F)F.c1c[n+](C)cn1CCCC,6,1,415,6
353.0,0.1,0.142,Training,1-butyl-3-methylimidazolium trifluoromethanesulfonate,CCCCN1C=C[N+](=C1)C.C(F)(F)(F)S(=O)(=O)[O-],[O-]S(=O)(=O)C(F)(F)F.n1(CCCC)cc[n+](c1)C,6,1,415,6
353.0,0.1,0.142,Training,1-butyl-3-methylimidazolium trifluoromethanesulfonate,CCCCN1C=C[N+](=C1)C.C(F)(F)(F)S(=O)(=O)[O-],FC(F)(S([O-])(=O)=O)F.n1(cc[n+](c1)C)CCCC,6,1,415,6
353.0,0.1,0.142,Training,1-butyl-3-methylimidazolium trifluoromethanesulfonate,CCCCN1C=C[N+](=C1)C.C(F)(F)(F)S(=O)(=O)[O-],O=S(=O)(C(F)(F)F)[O-].c1cn(c[n+]1C)CCCC,6,1,415,6
353.0,0.1,0.142,Training,1-butyl-3-methylimidazolium trifluoromethanesulfonate,CCCCN1C=C[N+](=C1)C.C(F)(F)(F)S(=O)(=O)[O-],O=S(=O)(C(F)(F)F)[O-].[n+]1(C)cn(cc1)CCCC,6,1,415,6
353.0,0.1,0.142,Training,1-butyl-3-methylimidazolium trifluoromethanesulfonate,CCCCN1C=C[N+](=C1)C.C(F)(F)(F)S(=O)(=O)[O-],[O-]S(=O)(=O)C(F)(F)F.c1[n+](C)cn(CCCC)c1,6,1,415,6
293.0,0.1,0.182,Training,1-ethyl-3-methylimidazolium ethylsulfate,CCN1C=C[N+](=C1)C.CCOS(=O)(=O)[O-],CCOS(=O)(=O)[O-].CCn1cc[n+](C)c1,11,1,416,11
293.0,0.1,0.182,Training,1-ethyl-3-methylimidazolium ethylsulfate,CCN1C=C[N+](=C1)C.CCOS(=O)(=O)[O-],C[n+]1cn(CC)cc1.S(OCC)([O-])(=O)=O,11,1,416,11
293.0,0.1,0.182,Training,1-ethyl-3-methylimidazolium ethylsulfate,CCN1C=C[N+](=C1)C.CCOS(=O)(=O)[O-],C(n1cc[n+](c1)C)C.O=S([O-])(OCC)=O,11,1,416,11
293.0,0.1,0.182,Training,1-ethyl-3-methylimidazolium ethylsulfate,CCN1C=C[N+](=C1)C.CCOS(=O)(=O)[O-],O=S(OCC)(=O)[O-].c1n(cc[n+]1C)CC,11,1,416,11
293.0,0.1,0.182,Training,1-ethyl-3-methylimidazolium ethylsulfate,CCN1C=C[N+](=C1)C.CCOS(=O)(=O)[O-],O=S([O-])(=O)OCC.c1n(CC)c[n+](c1)C,11,1,416,11
293.0,0.1,0.182,Training,1-ethyl-3-methylimidazolium ethylsulfate,CCN1C=C[N+](=C1)C.CCOS(=O)(=O)[O-],C(n1cc[n+](c1)C)C.S(=O)(=O)(OCC)[O-],11,1,416,11
293.0,0.1,0.182,Training,1-ethyl-3-methylimidazolium ethylsulfate,CCN1C=C[N+](=C1)C.CCOS(=O)(=O)[O-],C(n1cc[n+](C)c1)C.S(=O)(OCC)([O-])=O,11,1,416,11
293.0,0.1,0.182,Training,1-ethyl-3-methylimidazolium ethylsulfate,CCN1C=C[N+](=C1)C.CCOS(=O)(=O)[O-],CCn1cc[n+](C)c1.O(CC)S(=O)([O-])=O,11,1,416,11
293.0,0.1,0.182,Training,1-ethyl-3-methylimidazolium ethylsulfate,CCN1C=C[N+](=C1)C.CCOS(=O)(=O)[O-],O(S(=O)(=O)[O-])CC.[n+]1(C)ccn(CC)c1,11,1,416,11
293.0,0.1,0.182,Training,1-ethyl-3-methylimidazolium ethylsulfate,CCN1C=C[N+](=C1)C.CCOS(=O)(=O)[O-],C(C)n1c[n+](cc1)C.O=S([O-])(OCC)=O,11,1,416,11
303.0,0.1,0.181,Training,1-ethyl-3-methylimidazolium ethylsulfate,CCN1C=C[N+](=C1)C.CCOS(=O)(=O)[O-],CCOS(=O)(=O)[O-].CCn1cc[n+](C)c1,11,1,417,11
303.0,0.1,0.181,Training,1-ethyl-3-methylimidazolium ethylsulfate,CCN1C=C[N+](=C1)C.CCOS(=O)(=O)[O-],C(C)OS(=O)([O-])=O.c1[n+](ccn1CC)C,11,1,417,11
303.0,0.1,0.181,Training,1-ethyl-3-methylimidazolium ethylsulfate,CCN1C=C[N+](=C1)C.CCOS(=O)(=O)[O-],[O-]S(OCC)(=O)=O.c1[n+](ccn1CC)C,11,1,417,11
303.0,0.1,0.181,Training,1-ethyl-3-methylimidazolium ethylsulfate,CCN1C=C[N+](=C1)C.CCOS(=O)(=O)[O-],CCOS(=O)([O-])=O.c1[n+](C)cn(c1)CC,11,1,417,11
303.0,0.1,0.181,Training,1-ethyl-3-methylimidazolium ethylsulfate,CCN1C=C[N+](=C1)C.CCOS(=O)(=O)[O-],[O-]S(=O)(=O)OCC.c1n(c[n+](C)c1)CC,11,1,417,11
303.0,0.1,0.181,Training,1-ethyl-3-methylimidazolium ethylsulfate,CCN1C=C[N+](=C1)C.CCOS(=O)(=O)[O-],CCn1c[n+](cc1)C.S(OCC)(=O)([O-])=O,11,1,417,11
303.0,0.1,0.181,Training,1-ethyl-3-methylimidazolium ethylsulfate,CCN1C=C[N+](=C1)C.CCOS(=O)(=O)[O-],S([O-])(=O)(=O)OCC.n1(cc[n+](C)c1)CC,11,1,417,11
303.0,0.1,0.181,Training,1-ethyl-3-methylimidazolium ethylsulfate,CCN1C=C[N+](=C1)C.CCOS(=O)(=O)[O-],O=S(=O)(OCC)[O-].c1cn(CC)c[n+]1C,11,1,417,11
303.0,0.1,0.181,Training,1-ethyl-3-methylimidazolium ethylsulfate,CCN1C=C[N+](=C1)C.CCOS(=O)(=O)[O-],C(C)n1cc[n+](C)c1.C(OS(=O)([O-])=O)C,11,1,417,11
303.0,0.1,0.181,Training,1-ethyl-3-methylimidazolium ethylsulfate,CCN1C=C[N+](=C1)C.CCOS(=O)(=O)[O-],CCOS(=O)([O-])=O.c1c[n+](cn1CC)C,11,1,417,11
313.0,0.1,0.181,Training,1-ethyl-3-methylimidazolium ethylsulfate,CCN1C=C[N+](=C1)C.CCOS(=O)(=O)[O-],CCOS(=O)(=O)[O-].CCn1cc[n+](C)c1,11,1,418,11
313.0,0.1,0.181,Training,1-ethyl-3-methylimidazolium ethylsulfate,CCN1C=C[N+](=C1)C.CCOS(=O)(=O)[O-],C(C)OS(=O)([O-])=O.c1[n+](C)ccn1CC,11,1,418,11
313.0,0.1,0.181,Training,1-ethyl-3-methylimidazolium ethylsulfate,CCN1C=C[N+](=C1)C.CCOS(=O)(=O)[O-],CCOS([O-])(=O)=O.c1[n+](cn(c1)CC)C,11,1,418,11
313.0,0.1,0.181,Training,1-ethyl-3-methylimidazolium ethylsulfate,CCN1C=C[N+](=C1)C.CCOS(=O)(=O)[O-],C[n+]1cn(cc1)CC.O(CC)S([O-])(=O)=O,11,1,418,11
313.0,0.1,0.181,Training,1-ethyl-3-methylimidazolium ethylsulfate,CCN1C=C[N+](=C1)C.CCOS(=O)(=O)[O-],CCOS(=O)([O-])=O.c1[n+](ccn1CC)C,11,1,418,11