T/K,P/MPa,TC/W m-1 K-1,Data type,Name,SMILES,Normalized SMILES,index,P/bar,RANDOM,IL
313.15,65.0,0.124,Training,1-butyl-1-methyl-pyrrolidinium bis(trifluoromethylsulfonyl)imide,CCCC[N+]1(CCCC1)C.C(F)(F)(F)S(=O)(=O)[N-]S(=O)(=O)C(F)(F)F,C(F)(F)(F)S(=O)([N-]S(C(F)(F)F)(=O)=O)=O.C1CCC[N+]1(CCCC)C,2,650,72,2
313.15,65.0,0.124,Training,1-butyl-1-methyl-pyrrolidinium bis(trifluoromethylsulfonyl)imide,CCCC[N+]1(CCCC1)C.C(F)(F)(F)S(=O)(=O)[N-]S(=O)(=O)C(F)(F)F,C(F)(F)(F)S(=O)([N-]S(C(F)(F)F)(=O)=O)=O.C1[N+](CCC1)(C)CCCC,2,650,72,2
313.15,65.0,0.124,Training,1-butyl-1-methyl-pyrrolidinium bis(trifluoromethylsulfonyl)imide,CCCC[N+]1(CCCC1)C.C(F)(F)(F)S(=O)(=O)[N-]S(=O)(=O)C(F)(F)F,C1CCC[N+]1(CCCC)C.FC(F)(F)S([N-]S(C(F)(F)F)(=O)=O)(=O)=O,2,650,72,2
283.15,0.1,0.1176,Testing,N-butylpyridinium bis(trifluoromethylsulfonyl)imide,CCCC[N+]1=CC=CC=C1.C(F)(F)(F)S(=O)(=O)[N-]S(=O)(=O)C(F)(F)F,CCCC[n+]1ccccc1.O=S(=O)([N-]S(=O)(=O)C(F)(F)F)C(F)(F)F,3,1,73,3
283.15,0.1,0.1176,Testing,N-butylpyridinium bis(trifluoromethylsulfonyl)imide,CCCC[N+]1=CC=CC=C1.C(F)(F)(F)S(=O)(=O)[N-]S(=O)(=O)C(F)(F)F,CCCC[n+]1ccccc1.FC(F)(S(=O)(=O)[N-]S(=O)(C(F)(F)F)=O)F,3,1,73,3
283.15,0.1,0.1176,Testing,N-butylpyridinium bis(trifluoromethylsulfonyl)imide,CCCC[N+]1=CC=CC=C1.C(F)(F)(F)S(=O)(=O)[N-]S(=O)(=O)C(F)(F)F,CCCC[n+]1ccccc1.S(C(F)(F)F)(=O)([N-]S(C(F)(F)F)(=O)=O)=O,3,1,73,3
283.15,0.1,0.1176,Testing,N-butylpyridinium bis(trifluoromethylsulfonyl)imide,CCCC[N+]1=CC=CC=C1.C(F)(F)(F)S(=O)(=O)[N-]S(=O)(=O)C(F)(F)F,CCCC[n+]1ccccc1.FC(F)(S(=O)([N-]S(C(F)(F)F)(=O)=O)=O)F,3,1,73,3
283.15,0.1,0.1176,Testing,N-butylpyridinium bis(trifluoromethylsulfonyl)imide,CCCC[N+]1=CC=CC=C1.C(F)(F)(F)S(=O)(=O)[N-]S(=O)(=O)C(F)(F)F,CCCC[n+]1ccccc1.S(=O)(C(F)(F)F)([N-]S(=O)(=O)C(F)(F)F)=O,3,1,73,3
283.15,0.1,0.1176,Testing,N-butylpyridinium bis(trifluoromethylsulfonyl)imide,CCCC[N+]1=CC=CC=C1.C(F)(F)(F)S(=O)(=O)[N-]S(=O)(=O)C(F)(F)F,C(F)(S(=O)([N-]S(=O)(=O)C(F)(F)F)=O)(F)F.c1c[n+](ccc1)CCCC,3,1,73,3
283.15,0.1,0.1176,Testing,N-butylpyridinium bis(trifluoromethylsulfonyl)imide,CCCC[N+]1=CC=CC=C1.C(F)(F)(F)S(=O)(=O)[N-]S(=O)(=O)C(F)(F)F,O=S(C(F)(F)F)(=O)[N-]S(=O)(C(F)(F)F)=O.c1[n+](CCCC)cccc1,3,1,73,3
283.15,0.1,0.1176,Testing,N-butylpyridinium bis(trifluoromethylsulfonyl)imide,CCCC[N+]1=CC=CC=C1.C(F)(F)(F)S(=O)(=O)[N-]S(=O)(=O)C(F)(F)F,FC(S(=O)([N-]S(C(F)(F)F)(=O)=O)=O)(F)F.c1cccc[n+]1CCCC,3,1,73,3
283.15,0.1,0.1176,Testing,N-butylpyridinium bis(trifluoromethylsulfonyl)imide,CCCC[N+]1=CC=CC=C1.C(F)(F)(F)S(=O)(=O)[N-]S(=O)(=O)C(F)(F)F,C(CC[n+]1ccccc1)C.O=S([N-]S(=O)(C(F)(F)F)=O)(C(F)(F)F)=O,3,1,73,3
283.15,0.1,0.1176,Testing,N-butylpyridinium bis(trifluoromethylsulfonyl)imide,CCCC[N+]1=CC=CC=C1.C(F)(F)(F)S(=O)(=O)[N-]S(=O)(=O)C(F)(F)F,C(CC)C[n+]1ccccc1.FC(S([N-]S(=O)(=O)C(F)(F)F)(=O)=O)(F)F,3,1,73,3
283.15,5.0,0.1189,Training,N-butylpyridinium bis(trifluoromethylsulfonyl)imide,CCCC[N+]1=CC=CC=C1.C(F)(F)(F)S(=O)(=O)[N-]S(=O)(=O)C(F)(F)F,CCCC[n+]1ccccc1.O=S(=O)([N-]S(=O)(=O)C(F)(F)F)C(F)(F)F,3,50,74,3
283.15,5.0,0.1189,Training,N-butylpyridinium bis(trifluoromethylsulfonyl)imide,CCCC[N+]1=CC=CC=C1.C(F)(F)(F)S(=O)(=O)[N-]S(=O)(=O)C(F)(F)F,O=S([N-]S(C(F)(F)F)(=O)=O)(=O)C(F)(F)F.c1ccc[n+](c1)CCCC,3,50,74,3
283.15,5.0,0.1189,Training,N-butylpyridinium bis(trifluoromethylsulfonyl)imide,CCCC[N+]1=CC=CC=C1.C(F)(F)(F)S(=O)(=O)[N-]S(=O)(=O)C(F)(F)F,O=S([N-]S(C(F)(F)F)(=O)=O)(C(F)(F)F)=O.[n+]1(CCCC)ccccc1,3,50,74,3
283.15,5.0,0.1189,Training,N-butylpyridinium bis(trifluoromethylsulfonyl)imide,CCCC[N+]1=CC=CC=C1.C(F)(F)(F)S(=O)(=O)[N-]S(=O)(=O)C(F)(F)F,FC(F)(S(=O)([N-]S(=O)(=O)C(F)(F)F)=O)F.[n+]1(CCCC)ccccc1,3,50,74,3
283.15,5.0,0.1189,Training,N-butylpyridinium bis(trifluoromethylsulfonyl)imide,CCCC[N+]1=CC=CC=C1.C(F)(F)(F)S(=O)(=O)[N-]S(=O)(=O)C(F)(F)F,C([n+]1ccccc1)CCC.FC(S(=O)([N-]S(C(F)(F)F)(=O)=O)=O)(F)F,3,50,74,3
283.15,5.0,0.1189,Training,N-butylpyridinium bis(trifluoromethylsulfonyl)imide,CCCC[N+]1=CC=CC=C1.C(F)(F)(F)S(=O)(=O)[N-]S(=O)(=O)C(F)(F)F,C(CCC)[n+]1ccccc1.FC(F)(S(=O)([N-]S(=O)(C(F)(F)F)=O)=O)F,3,50,74,3
283.15,5.0,0.1189,Training,N-butylpyridinium bis(trifluoromethylsulfonyl)imide,CCCC[N+]1=CC=CC=C1.C(F)(F)(F)S(=O)(=O)[N-]S(=O)(=O)C(F)(F)F,[N-](S(=O)(=O)C(F)(F)F)S(C(F)(F)F)(=O)=O.c1ccc[n+](CCCC)c1,3,50,74,3
283.15,5.0,0.1189,Training,N-butylpyridinium bis(trifluoromethylsulfonyl)imide,CCCC[N+]1=CC=CC=C1.C(F)(F)(F)S(=O)(=O)[N-]S(=O)(=O)C(F)(F)F,FC(F)(S(=O)(=O)[N-]S(C(F)(F)F)(=O)=O)F.c1ccc[n+](c1)CCCC,3,50,74,3
283.15,5.0,0.1189,Training,N-butylpyridinium bis(trifluoromethylsulfonyl)imide,CCCC[N+]1=CC=CC=C1.C(F)(F)(F)S(=O)(=O)[N-]S(=O)(=O)C(F)(F)F,C(C[n+]1ccccc1)CC.O=S(=O)(C(F)(F)F)[N-]S(C(F)(F)F)(=O)=O,3,50,74,3
283.15,5.0,0.1189,Training,N-butylpyridinium bis(trifluoromethylsulfonyl)imide,CCCC[N+]1=CC=CC=C1.C(F)(F)(F)S(=O)(=O)[N-]S(=O)(=O)C(F)(F)F,C(CC)C[n+]1ccccc1.O=S(=O)(C(F)(F)F)[N-]S(=O)(=O)C(F)(F)F,3,50,74,3
283.15,10.0,0.1217,Training,N-butylpyridinium bis(trifluoromethylsulfonyl)imide,CCCC[N+]1=CC=CC=C1.C(F)(F)(F)S(=O)(=O)[N-]S(=O)(=O)C(F)(F)F,CCCC[n+]1ccccc1.O=S(=O)([N-]S(=O)(=O)C(F)(F)F)C(F)(F)F,3,100,75,3
283.15,10.0,0.1217,Training,N-butylpyridinium bis(trifluoromethylsulfonyl)imide,CCCC[N+]1=CC=CC=C1.C(F)(F)(F)S(=O)(=O)[N-]S(=O)(=O)C(F)(F)F,O=S(C(F)(F)F)([N-]S(C(F)(F)F)(=O)=O)=O.c1[n+](CCCC)cccc1,3,100,75,3
283.15,10.0,0.1217,Training,N-butylpyridinium bis(trifluoromethylsulfonyl)imide,CCCC[N+]1=CC=CC=C1.C(F)(F)(F)S(=O)(=O)[N-]S(=O)(=O)C(F)(F)F,FC(F)(F)S(=O)(=O)[N-]S(=O)(C(F)(F)F)=O.c1cc[n+](cc1)CCCC,3,100,75,3
283.15,10.0,0.1217,Training,N-butylpyridinium bis(trifluoromethylsulfonyl)imide,CCCC[N+]1=CC=CC=C1.C(F)(F)(F)S(=O)(=O)[N-]S(=O)(=O)C(F)(F)F,C(F)(F)(S(=O)([N-]S(=O)(C(F)(F)F)=O)=O)F.c1c[n+](CCCC)ccc1,3,100,75,3
283.15,10.0,0.1217,Training,N-butylpyridinium bis(trifluoromethylsulfonyl)imide,CCCC[N+]1=CC=CC=C1.C(F)(F)(F)S(=O)(=O)[N-]S(=O)(=O)C(F)(F)F,C(C[n+]1ccccc1)CC.FC(F)(S(=O)(=O)[N-]S(=O)(C(F)(F)F)=O)F,3,100,75,3
283.15,10.0,0.1217,Training,N-butylpyridinium bis(trifluoromethylsulfonyl)imide,CCCC[N+]1=CC=CC=C1.C(F)(F)(F)S(=O)(=O)[N-]S(=O)(=O)C(F)(F)F,FC(F)(F)S([N-]S(=O)(C(F)(F)F)=O)(=O)=O.c1ccc[n+](CCCC)c1,3,100,75,3
283.15,10.0,0.1217,Training,N-butylpyridinium bis(trifluoromethylsulfonyl)imide,CCCC[N+]1=CC=CC=C1.C(F)(F)(F)S(=O)(=O)[N-]S(=O)(=O)C(F)(F)F,S([N-]S(=O)(C(F)(F)F)=O)(C(F)(F)F)(=O)=O.c1cc[n+](CCCC)cc1,3,100,75,3
283.15,10.0,0.1217,Training,N-butylpyridinium bis(trifluoromethylsulfonyl)imide,CCCC[N+]1=CC=CC=C1.C(F)(F)(F)S(=O)(=O)[N-]S(=O)(=O)C(F)(F)F,C(F)(F)(F)S(=O)(=O)[N-]S(=O)(=O)C(F)(F)F.CCCC[n+]1ccccc1,3,100,75,3
283.15,10.0,0.1217,Training,N-butylpyridinium bis(trifluoromethylsulfonyl)imide,CCCC[N+]1=CC=CC=C1.C(F)(F)(F)S(=O)(=O)[N-]S(=O)(=O)C(F)(F)F,C(S(=O)([N-]S(=O)(=O)C(F)(F)F)=O)(F)(F)F.[n+]1(ccccc1)CCCC,3,100,75,3
283.15,10.0,0.1217,Training,N-butylpyridinium bis(trifluoromethylsulfonyl)imide,CCCC[N+]1=CC=CC=C1.C(F)(F)(F)S(=O)(=O)[N-]S(=O)(=O)C(F)(F)F,CCCC[n+]1ccccc1.FC(F)(S(=O)(=O)[N-]S(C(F)(F)F)(=O)=O)F,3,100,75,3
313.15,0.1,0.1237,Training,N-butylpyridinium bis(trifluoromethylsulfonyl)imide,CCCC[N+]1=CC=CC=C1.C(F)(F)(F)S(=O)(=O)[N-]S(=O)(=O)C(F)(F)F,CCCC[n+]1ccccc1.O=S(=O)([N-]S(=O)(=O)C(F)(F)F)C(F)(F)F,3,1,76,3
313.15,0.1,0.1237,Training,N-butylpyridinium bis(trifluoromethylsulfonyl)imide,CCCC[N+]1=CC=CC=C1.C(F)(F)(F)S(=O)(=O)[N-]S(=O)(=O)C(F)(F)F,FC(F)(S([N-]S(C(F)(F)F)(=O)=O)(=O)=O)F.c1ccc[n+](c1)CCCC,3,1,76,3
313.15,0.1,0.1237,Training,N-butylpyridinium bis(trifluoromethylsulfonyl)imide,CCCC[N+]1=CC=CC=C1.C(F)(F)(F)S(=O)(=O)[N-]S(=O)(=O)C(F)(F)F,C([n+]1ccccc1)CCC.O=S(C(F)(F)F)([N-]S(=O)(C(F)(F)F)=O)=O,3,1,76,3
313.15,0.1,0.1237,Training,N-butylpyridinium bis(trifluoromethylsulfonyl)imide,CCCC[N+]1=CC=CC=C1.C(F)(F)(F)S(=O)(=O)[N-]S(=O)(=O)C(F)(F)F,O=S([N-]S(C(F)(F)F)(=O)=O)(=O)C(F)(F)F.c1cc[n+](CCCC)cc1,3,1,76,3
313.15,0.1,0.1237,Training,N-butylpyridinium bis(trifluoromethylsulfonyl)imide,CCCC[N+]1=CC=CC=C1.C(F)(F)(F)S(=O)(=O)[N-]S(=O)(=O)C(F)(F)F,C(CC[n+]1ccccc1)C.O=S(C(F)(F)F)(=O)[N-]S(=O)(C(F)(F)F)=O,3,1,76,3
313.15,0.1,0.1237,Training,N-butylpyridinium bis(trifluoromethylsulfonyl)imide,CCCC[N+]1=CC=CC=C1.C(F)(F)(F)S(=O)(=O)[N-]S(=O)(=O)C(F)(F)F,S(=O)(C(F)(F)F)(=O)[N-]S(C(F)(F)F)(=O)=O.c1c[n+](CCCC)ccc1,3,1,76,3
313.15,0.1,0.1237,Training,N-butylpyridinium bis(trifluoromethylsulfonyl)imide,CCCC[N+]1=CC=CC=C1.C(F)(F)(F)S(=O)(=O)[N-]S(=O)(=O)C(F)(F)F,FC(S(=O)([N-]S(=O)(=O)C(F)(F)F)=O)(F)F.c1c[n+](CCCC)ccc1,3,1,76,3
313.15,0.1,0.1237,Training,N-butylpyridinium bis(trifluoromethylsulfonyl)imide,CCCC[N+]1=CC=CC=C1.C(F)(F)(F)S(=O)(=O)[N-]S(=O)(=O)C(F)(F)F,FC(F)(S(=O)(=O)[N-]S(C(F)(F)F)(=O)=O)F.[n+]1(CCCC)ccccc1,3,1,76,3
313.15,0.1,0.1237,Training,N-butylpyridinium bis(trifluoromethylsulfonyl)imide,CCCC[N+]1=CC=CC=C1.C(F)(F)(F)S(=O)(=O)[N-]S(=O)(=O)C(F)(F)F,C([n+]1ccccc1)CCC.S(C(F)(F)F)(=O)(=O)[N-]S(C(F)(F)F)(=O)=O,3,1,76,3
283.15,0.1,0.1176,Training,triethylsulfonium bis(trifluoromethylsulfonyl)imide,CC[S+](CC)CC.C(F)(F)(F)S(=O)(=O)[N-]S(=O)(=O)C(F)(F)F,CC[S+](CC)CC.O=S(=O)([N-]S(=O)(=O)C(F)(F)F)C(F)(F)F,4,1,77,4
283.15,0.1,0.1176,Training,triethylsulfonium bis(trifluoromethylsulfonyl)imide,CC[S+](CC)CC.C(F)(F)(F)S(=O)(=O)[N-]S(=O)(=O)C(F)(F)F,CC[S+](CC)CC.O=S(=O)(C(F)(F)F)[N-]S(=O)(=O)C(F)(F)F,4,1,77,4
283.15,0.1,0.1176,Training,triethylsulfonium bis(trifluoromethylsulfonyl)imide,CC[S+](CC)CC.C(F)(F)(F)S(=O)(=O)[N-]S(=O)(=O)C(F)(F)F,CC[S+](CC)CC.FC(S(=O)([N-]S(C(F)(F)F)(=O)=O)=O)(F)F,4,1,77,4
283.15,0.1,0.1176,Training,triethylsulfonium bis(trifluoromethylsulfonyl)imide,CC[S+](CC)CC.C(F)(F)(F)S(=O)(=O)[N-]S(=O)(=O)C(F)(F)F,C([S+](CC)CC)C.O=S(C(F)(F)F)([N-]S(C(F)(F)F)(=O)=O)=O,4,1,77,4
283.15,0.1,0.1176,Training,triethylsulfonium bis(trifluoromethylsulfonyl)imide,CC[S+](CC)CC.C(F)(F)(F)S(=O)(=O)[N-]S(=O)(=O)C(F)(F)F,CC[S+](CC)CC.FC(F)(F)S([N-]S(=O)(=O)C(F)(F)F)(=O)=O,4,1,77,4
283.15,0.1,0.1176,Training,triethylsulfonium bis(trifluoromethylsulfonyl)imide,CC[S+](CC)CC.C(F)(F)(F)S(=O)(=O)[N-]S(=O)(=O)C(F)(F)F,C(C)[S+](CC)CC.FC(S(=O)([N-]S(=O)(=O)C(F)(F)F)=O)(F)F,4,1,77,4
283.15,0.1,0.1176,Training,triethylsulfonium bis(trifluoromethylsulfonyl)imide,CC[S+](CC)CC.C(F)(F)(F)S(=O)(=O)[N-]S(=O)(=O)C(F)(F)F,C([S+](CC)CC)C.FC(F)(F)S([N-]S(=O)(C(F)(F)F)=O)(=O)=O,4,1,77,4
283.15,0.1,0.1176,Training,triethylsulfonium bis(trifluoromethylsulfonyl)imide,CC[S+](CC)CC.C(F)(F)(F)S(=O)(=O)[N-]S(=O)(=O)C(F)(F)F,CC[S+](CC)CC.O=S([N-]S(C(F)(F)F)(=O)=O)(=O)C(F)(F)F,4,1,77,4
283.15,0.1,0.1176,Training,triethylsulfonium bis(trifluoromethylsulfonyl)imide,CC[S+](CC)CC.C(F)(F)(F)S(=O)(=O)[N-]S(=O)(=O)C(F)(F)F,CC[S+](CC)CC.FC(S([N-]S(C(F)(F)F)(=O)=O)(=O)=O)(F)F,4,1,77,4
283.15,0.1,0.1176,Training,triethylsulfonium bis(trifluoromethylsulfonyl)imide,CC[S+](CC)CC.C(F)(F)(F)S(=O)(=O)[N-]S(=O)(=O)C(F)(F)F,FC(S([N-]S(C(F)(F)F)(=O)=O)(=O)=O)(F)F.[S+](CC)(CC)CC,4,1,77,4
283.15,5.0,0.1189,Training,triethylsulfonium bis(trifluoromethylsulfonyl)imide,CC[S+](CC)CC.C(F)(F)(F)S(=O)(=O)[N-]S(=O)(=O)C(F)(F)F,CC[S+](CC)CC.O=S(=O)([N-]S(=O)(=O)C(F)(F)F)C(F)(F)F,4,50,78,4
283.15,5.0,0.1189,Training,triethylsulfonium bis(trifluoromethylsulfonyl)imide,CC[S+](CC)CC.C(F)(F)(F)S(=O)(=O)[N-]S(=O)(=O)C(F)(F)F,C(F)(F)(F)S(=O)(=O)[N-]S(=O)(C(F)(F)F)=O.[S+](CC)(CC)CC,4,50,78,4
283.15,5.0,0.1189,Training,triethylsulfonium bis(trifluoromethylsulfonyl)imide,CC[S+](CC)CC.C(F)(F)(F)S(=O)(=O)[N-]S(=O)(=O)C(F)(F)F,CC[S+](CC)CC.FC(F)(S([N-]S(C(F)(F)F)(=O)=O)(=O)=O)F,4,50,78,4
283.15,5.0,0.1189,Training,triethylsulfonium bis(trifluoromethylsulfonyl)imide,CC[S+](CC)CC.C(F)(F)(F)S(=O)(=O)[N-]S(=O)(=O)C(F)(F)F,C([S+](CC)CC)C.FC(S(=O)([N-]S(C(F)(F)F)(=O)=O)=O)(F)F,4,50,78,4
283.15,5.0,0.1189,Training,triethylsulfonium bis(trifluoromethylsulfonyl)imide,CC[S+](CC)CC.C(F)(F)(F)S(=O)(=O)[N-]S(=O)(=O)C(F)(F)F,CC[S+](CC)CC.FC(S(=O)(=O)[N-]S(C(F)(F)F)(=O)=O)(F)F,4,50,78,4
283.15,5.0,0.1189,Training,triethylsulfonium bis(trifluoromethylsulfonyl)imide,CC[S+](CC)CC.C(F)(F)(F)S(=O)(=O)[N-]S(=O)(=O)C(F)(F)F,FC(F)(S([N-]S(C(F)(F)F)(=O)=O)(=O)=O)F.[S+](CC)(CC)CC,4,50,78,4
283.15,5.0,0.1189,Training,triethylsulfonium bis(trifluoromethylsulfonyl)imide,CC[S+](CC)CC.C(F)(F)(F)S(=O)(=O)[N-]S(=O)(=O)C(F)(F)F,CC[S+](CC)CC.O=S(=O)([N-]S(C(F)(F)F)(=O)=O)C(F)(F)F,4,50,78,4
283.15,5.0,0.1189,Training,triethylsulfonium bis(trifluoromethylsulfonyl)imide,CC[S+](CC)CC.C(F)(F)(F)S(=O)(=O)[N-]S(=O)(=O)C(F)(F)F,C([S+](CC)CC)C.O=S([N-]S(=O)(=O)C(F)(F)F)(=O)C(F)(F)F,4,50,78,4
283.15,5.0,0.1189,Training,triethylsulfonium bis(trifluoromethylsulfonyl)imide,CC[S+](CC)CC.C(F)(F)(F)S(=O)(=O)[N-]S(=O)(=O)C(F)(F)F,C(F)(F)(S([N-]S(C(F)(F)F)(=O)=O)(=O)=O)F.C([S+](CC)CC)C,4,50,78,4
283.15,5.0,0.1189,Training,triethylsulfonium bis(trifluoromethylsulfonyl)imide,CC[S+](CC)CC.C(F)(F)(F)S(=O)(=O)[N-]S(=O)(=O)C(F)(F)F,CC[S+](CC)CC.[N-](S(=O)(=O)C(F)(F)F)S(=O)(C(F)(F)F)=O,4,50,78,4
283.15,10.0,0.1217,Training,triethylsulfonium bis(trifluoromethylsulfonyl)imide,CC[S+](CC)CC.C(F)(F)(F)S(=O)(=O)[N-]S(=O)(=O)C(F)(F)F,CC[S+](CC)CC.O=S(=O)([N-]S(=O)(=O)C(F)(F)F)C(F)(F)F,4,100,79,4
283.15,10.0,0.1217,Training,triethylsulfonium bis(trifluoromethylsulfonyl)imide,CC[S+](CC)CC.C(F)(F)(F)S(=O)(=O)[N-]S(=O)(=O)C(F)(F)F,O=S([N-]S(C(F)(F)F)(=O)=O)(=O)C(F)(F)F.[S+](CC)(CC)CC,4,100,79,4
283.15,10.0,0.1217,Training,triethylsulfonium bis(trifluoromethylsulfonyl)imide,CC[S+](CC)CC.C(F)(F)(F)S(=O)(=O)[N-]S(=O)(=O)C(F)(F)F,FC(F)(S(=O)([N-]S(C(F)(F)F)(=O)=O)=O)F.[S+](CC)(CC)CC,4,100,79,4
283.15,10.0,0.1217,Training,triethylsulfonium bis(trifluoromethylsulfonyl)imide,CC[S+](CC)CC.C(F)(F)(F)S(=O)(=O)[N-]S(=O)(=O)C(F)(F)F,C(F)(S(=O)([N-]S(=O)(=O)C(F)(F)F)=O)(F)F.CC[S+](CC)CC,4,100,79,4
283.15,10.0,0.1217,Training,triethylsulfonium bis(trifluoromethylsulfonyl)imide,CC[S+](CC)CC.C(F)(F)(F)S(=O)(=O)[N-]S(=O)(=O)C(F)(F)F,CC[S+](CC)CC.FC(S(=O)(=O)[N-]S(=O)(=O)C(F)(F)F)(F)F,4,100,79,4
283.15,10.0,0.1217,Training,triethylsulfonium bis(trifluoromethylsulfonyl)imide,CC[S+](CC)CC.C(F)(F)(F)S(=O)(=O)[N-]S(=O)(=O)C(F)(F)F,CC[S+](CC)CC.O=S([N-]S(=O)(C(F)(F)F)=O)(=O)C(F)(F)F,4,100,79,4
283.15,10.0,0.1217,Training,triethylsulfonium bis(trifluoromethylsulfonyl)imide,CC[S+](CC)CC.C(F)(F)(F)S(=O)(=O)[N-]S(=O)(=O)C(F)(F)F,O=S(=O)([N-]S(=O)(=O)C(F)(F)F)C(F)(F)F.[S+](CC)(CC)CC,4,100,79,4
283.15,10.0,0.1217,Training,triethylsulfonium bis(trifluoromethylsulfonyl)imide,CC[S+](CC)CC.C(F)(F)(F)S(=O)(=O)[N-]S(=O)(=O)C(F)(F)F,CC[S+](CC)CC.O=S(=O)([N-]S(=O)(C(F)(F)F)=O)C(F)(F)F,4,100,79,4
283.15,10.0,0.1217,Training,triethylsulfonium bis(trifluoromethylsulfonyl)imide,CC[S+](CC)CC.C(F)(F)(F)S(=O)(=O)[N-]S(=O)(=O)C(F)(F)F,CC[S+](CC)CC.S([N-]S(=O)(C(F)(F)F)=O)(=O)(=O)C(F)(F)F,4,100,79,4
283.15,10.0,0.1217,Training,triethylsulfonium bis(trifluoromethylsulfonyl)imide,CC[S+](CC)CC.C(F)(F)(F)S(=O)(=O)[N-]S(=O)(=O)C(F)(F)F,CC[S+](CC)CC.O=S([N-]S(C(F)(F)F)(=O)=O)(C(F)(F)F)=O,4,100,79,4
313.15,0.1,0.1237,Training,triethylsulfonium bis(trifluoromethylsulfonyl)imide,CC[S+](CC)CC.C(F)(F)(F)S(=O)(=O)[N-]S(=O)(=O)C(F)(F)F,CC[S+](CC)CC.O=S(=O)([N-]S(=O)(=O)C(F)(F)F)C(F)(F)F,4,1,80,4
313.15,0.1,0.1237,Training,triethylsulfonium bis(trifluoromethylsulfonyl)imide,CC[S+](CC)CC.C(F)(F)(F)S(=O)(=O)[N-]S(=O)(=O)C(F)(F)F,CC[S+](CC)CC.O=S([N-]S(=O)(=O)C(F)(F)F)(=O)C(F)(F)F,4,1,80,4
313.15,0.1,0.1237,Training,triethylsulfonium bis(trifluoromethylsulfonyl)imide,CC[S+](CC)CC.C(F)(F)(F)S(=O)(=O)[N-]S(=O)(=O)C(F)(F)F,C(C)[S+](CC)CC.FC(F)(F)S(=O)([N-]S(=O)(C(F)(F)F)=O)=O,4,1,80,4
313.15,0.1,0.1237,Training,triethylsulfonium bis(trifluoromethylsulfonyl)imide,CC[S+](CC)CC.C(F)(F)(F)S(=O)(=O)[N-]S(=O)(=O)C(F)(F)F,CC[S+](CC)CC.O=S(C(F)(F)F)(=O)[N-]S(C(F)(F)F)(=O)=O,4,1,80,4
313.15,0.1,0.1237,Training,triethylsulfonium bis(trifluoromethylsulfonyl)imide,CC[S+](CC)CC.C(F)(F)(F)S(=O)(=O)[N-]S(=O)(=O)C(F)(F)F,C(F)(F)(S(=O)(=O)[N-]S(C(F)(F)F)(=O)=O)F.C([S+](CC)CC)C,4,1,80,4
313.15,0.1,0.1237,Training,triethylsulfonium bis(trifluoromethylsulfonyl)imide,CC[S+](CC)CC.C(F)(F)(F)S(=O)(=O)[N-]S(=O)(=O)C(F)(F)F,C(C)[S+](CC)CC.[N-](S(=O)(=O)C(F)(F)F)S(=O)(=O)C(F)(F)F,4,1,80,4
313.15,0.1,0.1237,Training,triethylsulfonium bis(trifluoromethylsulfonyl)imide,CC[S+](CC)CC.C(F)(F)(F)S(=O)(=O)[N-]S(=O)(=O)C(F)(F)F,C(C)[S+](CC)CC.O=S(C(F)(F)F)(=O)[N-]S(C(F)(F)F)(=O)=O,4,1,80,4
313.15,0.1,0.1237,Training,triethylsulfonium bis(trifluoromethylsulfonyl)imide,CC[S+](CC)CC.C(F)(F)(F)S(=O)(=O)[N-]S(=O)(=O)C(F)(F)F,CC[S+](CC)CC.FC(S(=O)(=O)[N-]S(=O)(=O)C(F)(F)F)(F)F,4,1,80,4
313.15,0.1,0.1237,Training,triethylsulfonium bis(trifluoromethylsulfonyl)imide,CC[S+](CC)CC.C(F)(F)(F)S(=O)(=O)[N-]S(=O)(=O)C(F)(F)F,C([S+](CC)CC)C.O=S([N-]S(=O)(C(F)(F)F)=O)(=O)C(F)(F)F,4,1,80,4
313.15,0.1,0.1237,Training,triethylsulfonium bis(trifluoromethylsulfonyl)imide,CC[S+](CC)CC.C(F)(F)(F)S(=O)(=O)[N-]S(=O)(=O)C(F)(F)F,FC(F)(F)S([N-]S(=O)(C(F)(F)F)=O)(=O)=O.[S+](CC)(CC)CC,4,1,80,4
283.15,0.1,0.1773,Testing,1-butyl-3-methylimidazolium methylsulfate,CCCCN1C=C[N+](=C1)C.COS(=O)(=O)[O-],CCCCn1cc[n+](C)c1.COS(=O)(=O)[O-],5,1,81,5
283.15,0.1,0.1773,Testing,1-butyl-3-methylimidazolium methylsulfate,CCCCN1C=C[N+](=C1)C.COS(=O)(=O)[O-],C(C)CCn1c[n+](cc1)C.S(=O)([O-])(OC)=O,5,1,81,5
283.15,0.1,0.1773,Testing,1-butyl-3-methylimidazolium methylsulfate,CCCCN1C=C[N+](=C1)C.COS(=O)(=O)[O-],CCCCn1c[n+](C)cc1.O(S(=O)(=O)[O-])C,5,1,81,5
283.15,0.1,0.1773,Testing,1-butyl-3-methylimidazolium methylsulfate,CCCCN1C=C[N+](=C1)C.COS(=O)(=O)[O-],C(CCC)n1cc[n+](c1)C.O=S(OC)([O-])=O,5,1,81,5
283.15,0.1,0.1773,Testing,1-butyl-3-methylimidazolium methylsulfate,CCCCN1C=C[N+](=C1)C.COS(=O)(=O)[O-],C(CC)Cn1c[n+](cc1)C.[O-]S(OC)(=O)=O,5,1,81,5
283.15,0.1,0.1773,Testing,1-butyl-3-methylimidazolium methylsulfate,CCCCN1C=C[N+](=C1)C.COS(=O)(=O)[O-],O(S(=O)(=O)[O-])C.c1[n+](cn(c1)CCCC)C,5,1,81,5
283.15,0.1,0.1773,Testing,1-butyl-3-methylimidazolium methylsulfate,CCCCN1C=C[N+](=C1)C.COS(=O)(=O)[O-],C(CC)Cn1cc[n+](c1)C.O(S([O-])(=O)=O)C,5,1,81,5
283.15,0.1,0.1773,Testing,1-butyl-3-methylimidazolium methylsulfate,CCCCN1C=C[N+](=C1)C.COS(=O)(=O)[O-],S(=O)([O-])(OC)=O.c1n(CCCC)cc[n+]1C,5,1,81,5
283.15,0.1,0.1773,Testing,1-butyl-3-methylimidazolium methylsulfate,CCCCN1C=C[N+](=C1)C.COS(=O)(=O)[O-],C(n1c[n+](C)cc1)CCC.[O-]S(OC)(=O)=O,5,1,81,5
283.15,0.1,0.1773,Testing,1-butyl-3-methylimidazolium methylsulfate,CCCCN1C=C[N+](=C1)C.COS(=O)(=O)[O-],C[n+]1cn(cc1)CCCC.[O-]S(=O)(=O)OC,5,1,81,5
283.15,5.0,0.1807,Training,1-butyl-3-methylimidazolium methylsulfate,CCCCN1C=C[N+](=C1)C.COS(=O)(=O)[O-],CCCCn1cc[n+](C)c1.COS(=O)(=O)[O-],5,50,82,5
283.15,5.0,0.1807,Training,1-butyl-3-methylimidazolium methylsulfate,CCCCN1C=C[N+](=C1)C.COS(=O)(=O)[O-],O(C)S(=O)([O-])=O.c1n(CCCC)c[n+](c1)C,5,50,82,5
283.15,5.0,0.1807,Training,1-butyl-3-methylimidazolium methylsulfate,CCCCN1C=C[N+](=C1)C.COS(=O)(=O)[O-],S(=O)(OC)([O-])=O.c1n(cc[n+]1C)CCCC,5,50,82,5
283.15,5.0,0.1807,Training,1-butyl-3-methylimidazolium methylsulfate,CCCCN1C=C[N+](=C1)C.COS(=O)(=O)[O-],COS(=O)(=O)[O-].C[n+]1cn(cc1)CCCC,5,50,82,5
283.15,5.0,0.1807,Training,1-butyl-3-methylimidazolium methylsulfate,CCCCN1C=C[N+](=C1)C.COS(=O)(=O)[O-],CCCCn1c[n+](C)cc1.O=S(OC)(=O)[O-],5,50,82,5
283.15,5.0,0.1807,Training,1-butyl-3-methylimidazolium methylsulfate,CCCCN1C=C[N+](=C1)C.COS(=O)(=O)[O-],C[n+]1ccn(c1)CCCC.O=S(=O)(OC)[O-],5,50,82,5
283.15,5.0,0.1807,Training,1-butyl-3-methylimidazolium methylsulfate,CCCCN1C=C[N+](=C1)C.COS(=O)(=O)[O-],S(=O)(OC)(=O)[O-].c1n(CCCC)cc[n+]1C,5,50,82,5
283.15,5.0,0.1807,Training,1-butyl-3-methylimidazolium methylsulfate,CCCCN1C=C[N+](=C1)C.COS(=O)(=O)[O-],S([O-])(OC)(=O)=O.[n+]1(C)cn(cc1)CCCC,5,50,82,5
283.15,5.0,0.1807,Training,1-butyl-3-methylimidazolium methylsulfate,CCCCN1C=C[N+](=C1)C.COS(=O)(=O)[O-],COS([O-])(=O)=O.c1c[n+](cn1CCCC)C,5,50,82,5
283.15,5.0,0.1807,Training,1-butyl-3-methylimidazolium methylsulfate,CCCCN1C=C[N+](=C1)C.COS(=O)(=O)[O-],O=S(=O)([O-])OC.c1n(cc[n+]1C)CCCC,5,50,82,5
283.15,10.0,0.1825,Training,1-butyl-3-methylimidazolium methylsulfate,CCCCN1C=C[N+](=C1)C.COS(=O)(=O)[O-],CCCCn1cc[n+](C)c1.COS(=O)(=O)[O-],5,100,83,5
283.15,10.0,0.1825,Training,1-butyl-3-methylimidazolium methylsulfate,CCCCN1C=C[N+](=C1)C.COS(=O)(=O)[O-],C[n+]1cn(CCCC)cc1.O(C)S(=O)([O-])=O,5,100,83,5