T/K,P/MPa,TC/W m-1 K-1,Data type,Name,SMILES,Normalized SMILES,index,P/bar,RANDOM,IL
435.53,0.1,0.1138,Training,1-propyl-1-methylpyrrolidinium bis(trifluoromethylsulfonyl)imide,CCC[N+]1(CCCC1)C.C(F)(F)(F)S(=O)(=O)[N-]S(=O)(=O)C(F)(F)F,C(C)C[N+]1(CCCC1)C.C(F)(F)(F)S(=O)([N-]S(=O)(C(F)(F)F)=O)=O,40,1,539,40
435.53,0.1,0.1138,Training,1-propyl-1-methylpyrrolidinium bis(trifluoromethylsulfonyl)imide,CCC[N+]1(CCCC1)C.C(F)(F)(F)S(=O)(=O)[N-]S(=O)(=O)C(F)(F)F,C1C[N+](CC1)(CCC)C.FC(F)(F)S(=O)(=O)[N-]S(=O)(=O)C(F)(F)F,40,1,539,40
435.53,0.1,0.1138,Training,1-propyl-1-methylpyrrolidinium bis(trifluoromethylsulfonyl)imide,CCC[N+]1(CCCC1)C.C(F)(F)(F)S(=O)(=O)[N-]S(=O)(=O)C(F)(F)F,C1CC[N+](C1)(C)CCC.O=S(C(F)(F)F)(=O)[N-]S(C(F)(F)F)(=O)=O,40,1,539,40
279.16,0.1,0.1159,Training,1-butyl-1-methyl-pyrrolidinium bis(trifluoromethylsulfonyl)imide,CCCC[N+]1(CCCC1)C.C(F)(F)(F)S(=O)(=O)[N-]S(=O)(=O)C(F)(F)F,CCCC[N+]1(C)CCCC1.O=S(=O)([N-]S(=O)(=O)C(F)(F)F)C(F)(F)F,2,1,540,2
279.16,0.1,0.1159,Training,1-butyl-1-methyl-pyrrolidinium bis(trifluoromethylsulfonyl)imide,CCCC[N+]1(CCCC1)C.C(F)(F)(F)S(=O)(=O)[N-]S(=O)(=O)C(F)(F)F,CCCC[N+]1(C)CCCC1.O=S(=O)([N-]S(C(F)(F)F)(=O)=O)C(F)(F)F,2,1,540,2
279.16,0.1,0.1159,Training,1-butyl-1-methyl-pyrrolidinium bis(trifluoromethylsulfonyl)imide,CCCC[N+]1(CCCC1)C.C(F)(F)(F)S(=O)(=O)[N-]S(=O)(=O)C(F)(F)F,CCCC[N+]1(C)CCCC1.O=S(=O)(C(F)(F)F)[N-]S(C(F)(F)F)(=O)=O,2,1,540,2
279.16,0.1,0.1159,Training,1-butyl-1-methyl-pyrrolidinium bis(trifluoromethylsulfonyl)imide,CCCC[N+]1(CCCC1)C.C(F)(F)(F)S(=O)(=O)[N-]S(=O)(=O)C(F)(F)F,C(CC)C[N+]1(C)CCCC1.FC(F)(S(=O)([N-]S(C(F)(F)F)(=O)=O)=O)F,2,1,540,2
279.16,0.1,0.1159,Training,1-butyl-1-methyl-pyrrolidinium bis(trifluoromethylsulfonyl)imide,CCCC[N+]1(CCCC1)C.C(F)(F)(F)S(=O)(=O)[N-]S(=O)(=O)C(F)(F)F,CCCC[N+]1(CCCC1)C.S([N-]S(=O)(=O)C(F)(F)F)(=O)(=O)C(F)(F)F,2,1,540,2
279.16,0.1,0.1159,Training,1-butyl-1-methyl-pyrrolidinium bis(trifluoromethylsulfonyl)imide,CCCC[N+]1(CCCC1)C.C(F)(F)(F)S(=O)(=O)[N-]S(=O)(=O)C(F)(F)F,C1[N+](CCC1)(C)CCCC.S(=O)(=O)(C(F)(F)F)[N-]S(=O)(C(F)(F)F)=O,2,1,540,2
279.16,0.1,0.1159,Training,1-butyl-1-methyl-pyrrolidinium bis(trifluoromethylsulfonyl)imide,CCCC[N+]1(CCCC1)C.C(F)(F)(F)S(=O)(=O)[N-]S(=O)(=O)C(F)(F)F,S(C(F)(F)F)(=O)([N-]S(=O)(C(F)(F)F)=O)=O.[N+]1(CCCC1)(C)CCCC,2,1,540,2
279.16,0.1,0.1159,Training,1-butyl-1-methyl-pyrrolidinium bis(trifluoromethylsulfonyl)imide,CCCC[N+]1(CCCC1)C.C(F)(F)(F)S(=O)(=O)[N-]S(=O)(=O)C(F)(F)F,C([N+]1(CCCC1)C)CCC.O=S([N-]S(=O)(C(F)(F)F)=O)(C(F)(F)F)=O,2,1,540,2
279.16,0.1,0.1159,Training,1-butyl-1-methyl-pyrrolidinium bis(trifluoromethylsulfonyl)imide,CCCC[N+]1(CCCC1)C.C(F)(F)(F)S(=O)(=O)[N-]S(=O)(=O)C(F)(F)F,C1C[N+](C)(CC1)CCCC.FC(F)(S(=O)([N-]S(=O)(=O)C(F)(F)F)=O)F,2,1,540,2
279.16,0.1,0.1159,Training,1-butyl-1-methyl-pyrrolidinium bis(trifluoromethylsulfonyl)imide,CCCC[N+]1(CCCC1)C.C(F)(F)(F)S(=O)(=O)[N-]S(=O)(=O)C(F)(F)F,FC(S(=O)([N-]S(=O)(=O)C(F)(F)F)=O)(F)F.[N+]1(CCCC1)(CCCC)C,2,1,540,2
294.59,0.1,0.115,Training,1-butyl-1-methyl-pyrrolidinium bis(trifluoromethylsulfonyl)imide,CCCC[N+]1(CCCC1)C.C(F)(F)(F)S(=O)(=O)[N-]S(=O)(=O)C(F)(F)F,CCCC[N+]1(C)CCCC1.O=S(=O)([N-]S(=O)(=O)C(F)(F)F)C(F)(F)F,2,1,541,2
294.59,0.1,0.115,Training,1-butyl-1-methyl-pyrrolidinium bis(trifluoromethylsulfonyl)imide,CCCC[N+]1(CCCC1)C.C(F)(F)(F)S(=O)(=O)[N-]S(=O)(=O)C(F)(F)F,C(CC)C[N+]1(CCCC1)C.O=S(=O)([N-]S(C(F)(F)F)(=O)=O)C(F)(F)F,2,1,541,2
294.59,0.1,0.115,Training,1-butyl-1-methyl-pyrrolidinium bis(trifluoromethylsulfonyl)imide,CCCC[N+]1(CCCC1)C.C(F)(F)(F)S(=O)(=O)[N-]S(=O)(=O)C(F)(F)F,C(C[N+]1(CCCC1)C)CC.FC(F)(S([N-]S(=O)(=O)C(F)(F)F)(=O)=O)F,2,1,541,2
294.59,0.1,0.115,Training,1-butyl-1-methyl-pyrrolidinium bis(trifluoromethylsulfonyl)imide,CCCC[N+]1(CCCC1)C.C(F)(F)(F)S(=O)(=O)[N-]S(=O)(=O)C(F)(F)F,C1CCC[N+]1(C)CCCC.FC(S([N-]S(=O)(=O)C(F)(F)F)(=O)=O)(F)F,2,1,541,2
294.59,0.1,0.115,Training,1-butyl-1-methyl-pyrrolidinium bis(trifluoromethylsulfonyl)imide,CCCC[N+]1(CCCC1)C.C(F)(F)(F)S(=O)(=O)[N-]S(=O)(=O)C(F)(F)F,O=S([N-]S(C(F)(F)F)(=O)=O)(=O)C(F)(F)F.[N+]1(CCCC1)(CCCC)C,2,1,541,2
294.59,0.1,0.115,Training,1-butyl-1-methyl-pyrrolidinium bis(trifluoromethylsulfonyl)imide,CCCC[N+]1(CCCC1)C.C(F)(F)(F)S(=O)(=O)[N-]S(=O)(=O)C(F)(F)F,C(C[N+]1(C)CCCC1)CC.O=S(C(F)(F)F)(=O)[N-]S(=O)(=O)C(F)(F)F,2,1,541,2
294.59,0.1,0.115,Training,1-butyl-1-methyl-pyrrolidinium bis(trifluoromethylsulfonyl)imide,CCCC[N+]1(CCCC1)C.C(F)(F)(F)S(=O)(=O)[N-]S(=O)(=O)C(F)(F)F,C(S([N-]S(C(F)(F)F)(=O)=O)(=O)=O)(F)(F)F.C1CC[N+](CCCC)(C1)C,2,1,541,2
294.59,0.1,0.115,Training,1-butyl-1-methyl-pyrrolidinium bis(trifluoromethylsulfonyl)imide,CCCC[N+]1(CCCC1)C.C(F)(F)(F)S(=O)(=O)[N-]S(=O)(=O)C(F)(F)F,C([N+]1(CCCC1)C)CCC.O=S(=O)([N-]S(C(F)(F)F)(=O)=O)C(F)(F)F,2,1,541,2
294.59,0.1,0.115,Training,1-butyl-1-methyl-pyrrolidinium bis(trifluoromethylsulfonyl)imide,CCCC[N+]1(CCCC1)C.C(F)(F)(F)S(=O)(=O)[N-]S(=O)(=O)C(F)(F)F,C1CC[N+](CCCC)(C)C1.S(C(F)(F)F)([N-]S(=O)(C(F)(F)F)=O)(=O)=O,2,1,541,2
294.59,0.1,0.115,Training,1-butyl-1-methyl-pyrrolidinium bis(trifluoromethylsulfonyl)imide,CCCC[N+]1(CCCC1)C.C(F)(F)(F)S(=O)(=O)[N-]S(=O)(=O)C(F)(F)F,C(F)(S(=O)(=O)[N-]S(=O)(C(F)(F)F)=O)(F)F.C[N+]1(CCCC1)CCCC,2,1,541,2
306.65,0.1,0.1157,Training,1-butyl-1-methyl-pyrrolidinium bis(trifluoromethylsulfonyl)imide,CCCC[N+]1(CCCC1)C.C(F)(F)(F)S(=O)(=O)[N-]S(=O)(=O)C(F)(F)F,CCCC[N+]1(C)CCCC1.O=S(=O)([N-]S(=O)(=O)C(F)(F)F)C(F)(F)F,2,1,542,2
306.65,0.1,0.1157,Training,1-butyl-1-methyl-pyrrolidinium bis(trifluoromethylsulfonyl)imide,CCCC[N+]1(CCCC1)C.C(F)(F)(F)S(=O)(=O)[N-]S(=O)(=O)C(F)(F)F,C[N+]1(CCCC1)CCCC.FC(F)(F)S(=O)(=O)[N-]S(C(F)(F)F)(=O)=O,2,1,542,2
306.65,0.1,0.1157,Training,1-butyl-1-methyl-pyrrolidinium bis(trifluoromethylsulfonyl)imide,CCCC[N+]1(CCCC1)C.C(F)(F)(F)S(=O)(=O)[N-]S(=O)(=O)C(F)(F)F,C(C)CC[N+]1(C)CCCC1.FC(S(=O)([N-]S(=O)(C(F)(F)F)=O)=O)(F)F,2,1,542,2
306.65,0.1,0.1157,Training,1-butyl-1-methyl-pyrrolidinium bis(trifluoromethylsulfonyl)imide,CCCC[N+]1(CCCC1)C.C(F)(F)(F)S(=O)(=O)[N-]S(=O)(=O)C(F)(F)F,C1[N+](CCCC)(C)CCC1.O=S(=O)([N-]S(=O)(=O)C(F)(F)F)C(F)(F)F,2,1,542,2
306.65,0.1,0.1157,Training,1-butyl-1-methyl-pyrrolidinium bis(trifluoromethylsulfonyl)imide,CCCC[N+]1(CCCC1)C.C(F)(F)(F)S(=O)(=O)[N-]S(=O)(=O)C(F)(F)F,C1CC[N+](C)(CCCC)C1.FC(F)(S([N-]S(=O)(C(F)(F)F)=O)(=O)=O)F,2,1,542,2
306.65,0.1,0.1157,Training,1-butyl-1-methyl-pyrrolidinium bis(trifluoromethylsulfonyl)imide,CCCC[N+]1(CCCC1)C.C(F)(F)(F)S(=O)(=O)[N-]S(=O)(=O)C(F)(F)F,C1CC[N+](C)(CCCC)C1.O=S(C(F)(F)F)(=O)[N-]S(C(F)(F)F)(=O)=O,2,1,542,2
306.65,0.1,0.1157,Training,1-butyl-1-methyl-pyrrolidinium bis(trifluoromethylsulfonyl)imide,CCCC[N+]1(CCCC1)C.C(F)(F)(F)S(=O)(=O)[N-]S(=O)(=O)C(F)(F)F,C1CCC[N+]1(C)CCCC.S(=O)(C(F)(F)F)(=O)[N-]S(C(F)(F)F)(=O)=O,2,1,542,2
306.65,0.1,0.1157,Training,1-butyl-1-methyl-pyrrolidinium bis(trifluoromethylsulfonyl)imide,CCCC[N+]1(CCCC1)C.C(F)(F)(F)S(=O)(=O)[N-]S(=O)(=O)C(F)(F)F,C[N+]1(CCCC1)CCCC.FC(F)(S([N-]S(=O)(C(F)(F)F)=O)(=O)=O)F,2,1,542,2
306.65,0.1,0.1157,Training,1-butyl-1-methyl-pyrrolidinium bis(trifluoromethylsulfonyl)imide,CCCC[N+]1(CCCC1)C.C(F)(F)(F)S(=O)(=O)[N-]S(=O)(=O)C(F)(F)F,FC(S(=O)(=O)[N-]S(=O)(=O)C(F)(F)F)(F)F.[N+]1(C)(CCCC1)CCCC,2,1,542,2
306.65,0.1,0.1157,Training,1-butyl-1-methyl-pyrrolidinium bis(trifluoromethylsulfonyl)imide,CCCC[N+]1(CCCC1)C.C(F)(F)(F)S(=O)(=O)[N-]S(=O)(=O)C(F)(F)F,C1C[N+](CCCC)(CC1)C.[N-](S(C(F)(F)F)(=O)=O)S(C(F)(F)F)(=O)=O,2,1,542,2
334.78,0.1,0.114,Training,1-butyl-1-methyl-pyrrolidinium bis(trifluoromethylsulfonyl)imide,CCCC[N+]1(CCCC1)C.C(F)(F)(F)S(=O)(=O)[N-]S(=O)(=O)C(F)(F)F,CCCC[N+]1(C)CCCC1.O=S(=O)([N-]S(=O)(=O)C(F)(F)F)C(F)(F)F,2,1,543,2
334.78,0.1,0.114,Training,1-butyl-1-methyl-pyrrolidinium bis(trifluoromethylsulfonyl)imide,CCCC[N+]1(CCCC1)C.C(F)(F)(F)S(=O)(=O)[N-]S(=O)(=O)C(F)(F)F,C([N+]1(C)CCCC1)CCC.[N-](S(=O)(=O)C(F)(F)F)S(=O)(C(F)(F)F)=O,2,1,543,2
334.78,0.1,0.114,Training,1-butyl-1-methyl-pyrrolidinium bis(trifluoromethylsulfonyl)imide,CCCC[N+]1(CCCC1)C.C(F)(F)(F)S(=O)(=O)[N-]S(=O)(=O)C(F)(F)F,C(CC)C[N+]1(C)CCCC1.FC(S(=O)(=O)[N-]S(=O)(C(F)(F)F)=O)(F)F,2,1,543,2
334.78,0.1,0.114,Training,1-butyl-1-methyl-pyrrolidinium bis(trifluoromethylsulfonyl)imide,CCCC[N+]1(CCCC1)C.C(F)(F)(F)S(=O)(=O)[N-]S(=O)(=O)C(F)(F)F,C1C[N+](CC1)(C)CCCC.FC(F)(S(=O)([N-]S(=O)(C(F)(F)F)=O)=O)F,2,1,543,2
334.78,0.1,0.114,Training,1-butyl-1-methyl-pyrrolidinium bis(trifluoromethylsulfonyl)imide,CCCC[N+]1(CCCC1)C.C(F)(F)(F)S(=O)(=O)[N-]S(=O)(=O)C(F)(F)F,C([N+]1(CCCC1)C)CCC.FC(S([N-]S(C(F)(F)F)(=O)=O)(=O)=O)(F)F,2,1,543,2
334.78,0.1,0.114,Training,1-butyl-1-methyl-pyrrolidinium bis(trifluoromethylsulfonyl)imide,CCCC[N+]1(CCCC1)C.C(F)(F)(F)S(=O)(=O)[N-]S(=O)(=O)C(F)(F)F,C1C[N+](CC1)(CCCC)C.[N-](S(=O)(=O)C(F)(F)F)S(C(F)(F)F)(=O)=O,2,1,543,2
334.78,0.1,0.114,Training,1-butyl-1-methyl-pyrrolidinium bis(trifluoromethylsulfonyl)imide,CCCC[N+]1(CCCC1)C.C(F)(F)(F)S(=O)(=O)[N-]S(=O)(=O)C(F)(F)F,C(F)(F)(S(=O)([N-]S(=O)(=O)C(F)(F)F)=O)F.C1CCC[N+]1(C)CCCC,2,1,543,2
334.78,0.1,0.114,Training,1-butyl-1-methyl-pyrrolidinium bis(trifluoromethylsulfonyl)imide,CCCC[N+]1(CCCC1)C.C(F)(F)(F)S(=O)(=O)[N-]S(=O)(=O)C(F)(F)F,C1C[N+](C)(CCCC)CC1.S([N-]S(=O)(=O)C(F)(F)F)(C(F)(F)F)(=O)=O,2,1,543,2
334.78,0.1,0.114,Training,1-butyl-1-methyl-pyrrolidinium bis(trifluoromethylsulfonyl)imide,CCCC[N+]1(CCCC1)C.C(F)(F)(F)S(=O)(=O)[N-]S(=O)(=O)C(F)(F)F,C(CCC)[N+]1(CCCC1)C.O=S(C(F)(F)F)(=O)[N-]S(=O)(=O)C(F)(F)F,2,1,543,2
334.78,0.1,0.114,Training,1-butyl-1-methyl-pyrrolidinium bis(trifluoromethylsulfonyl)imide,CCCC[N+]1(CCCC1)C.C(F)(F)(F)S(=O)(=O)[N-]S(=O)(=O)C(F)(F)F,C(C)CC[N+]1(CCCC1)C.FC(F)(F)S([N-]S(C(F)(F)F)(=O)=O)(=O)=O,2,1,543,2
335.13,0.1,0.1143,Testing,1-butyl-1-methyl-pyrrolidinium bis(trifluoromethylsulfonyl)imide,CCCC[N+]1(CCCC1)C.C(F)(F)(F)S(=O)(=O)[N-]S(=O)(=O)C(F)(F)F,CCCC[N+]1(C)CCCC1.O=S(=O)([N-]S(=O)(=O)C(F)(F)F)C(F)(F)F,2,1,544,2
335.13,0.1,0.1143,Testing,1-butyl-1-methyl-pyrrolidinium bis(trifluoromethylsulfonyl)imide,CCCC[N+]1(CCCC1)C.C(F)(F)(F)S(=O)(=O)[N-]S(=O)(=O)C(F)(F)F,C[N+]1(CCCC1)CCCC.FC(S(=O)([N-]S(=O)(C(F)(F)F)=O)=O)(F)F,2,1,544,2
335.13,0.1,0.1143,Testing,1-butyl-1-methyl-pyrrolidinium bis(trifluoromethylsulfonyl)imide,CCCC[N+]1(CCCC1)C.C(F)(F)(F)S(=O)(=O)[N-]S(=O)(=O)C(F)(F)F,C1CCC[N+]1(CCCC)C.O=S(=O)(C(F)(F)F)[N-]S(=O)(C(F)(F)F)=O,2,1,544,2
335.13,0.1,0.1143,Testing,1-butyl-1-methyl-pyrrolidinium bis(trifluoromethylsulfonyl)imide,CCCC[N+]1(CCCC1)C.C(F)(F)(F)S(=O)(=O)[N-]S(=O)(=O)C(F)(F)F,C1CCC[N+]1(CCCC)C.FC(S([N-]S(C(F)(F)F)(=O)=O)(=O)=O)(F)F,2,1,544,2
335.13,0.1,0.1143,Testing,1-butyl-1-methyl-pyrrolidinium bis(trifluoromethylsulfonyl)imide,CCCC[N+]1(CCCC1)C.C(F)(F)(F)S(=O)(=O)[N-]S(=O)(=O)C(F)(F)F,C(F)(S(=O)([N-]S(C(F)(F)F)(=O)=O)=O)(F)F.[N+]1(CCCC1)(CCCC)C,2,1,544,2
335.13,0.1,0.1143,Testing,1-butyl-1-methyl-pyrrolidinium bis(trifluoromethylsulfonyl)imide,CCCC[N+]1(CCCC1)C.C(F)(F)(F)S(=O)(=O)[N-]S(=O)(=O)C(F)(F)F,C1CCC[N+]1(CCCC)C.FC(F)(S(=O)([N-]S(=O)(C(F)(F)F)=O)=O)F,2,1,544,2
335.13,0.1,0.1143,Testing,1-butyl-1-methyl-pyrrolidinium bis(trifluoromethylsulfonyl)imide,CCCC[N+]1(CCCC1)C.C(F)(F)(F)S(=O)(=O)[N-]S(=O)(=O)C(F)(F)F,C1CC[N+](C1)(C)CCCC.S(C(F)(F)F)(=O)(=O)[N-]S(=O)(C(F)(F)F)=O,2,1,544,2
335.13,0.1,0.1143,Testing,1-butyl-1-methyl-pyrrolidinium bis(trifluoromethylsulfonyl)imide,CCCC[N+]1(CCCC1)C.C(F)(F)(F)S(=O)(=O)[N-]S(=O)(=O)C(F)(F)F,O=S(=O)(C(F)(F)F)[N-]S(=O)(=O)C(F)(F)F.[N+]1(C)(CCCC1)CCCC,2,1,544,2
335.13,0.1,0.1143,Testing,1-butyl-1-methyl-pyrrolidinium bis(trifluoromethylsulfonyl)imide,CCCC[N+]1(CCCC1)C.C(F)(F)(F)S(=O)(=O)[N-]S(=O)(=O)C(F)(F)F,C1[N+](CCC1)(CCCC)C.FC(S([N-]S(C(F)(F)F)(=O)=O)(=O)=O)(F)F,2,1,544,2
335.13,0.1,0.1143,Testing,1-butyl-1-methyl-pyrrolidinium bis(trifluoromethylsulfonyl)imide,CCCC[N+]1(CCCC1)C.C(F)(F)(F)S(=O)(=O)[N-]S(=O)(=O)C(F)(F)F,C1CC[N+](C1)(CCCC)C.FC(F)(F)S([N-]S(=O)(=O)C(F)(F)F)(=O)=O,2,1,544,2
338.98,0.1,0.1136,Training,1-butyl-1-methyl-pyrrolidinium bis(trifluoromethylsulfonyl)imide,CCCC[N+]1(CCCC1)C.C(F)(F)(F)S(=O)(=O)[N-]S(=O)(=O)C(F)(F)F,CCCC[N+]1(C)CCCC1.O=S(=O)([N-]S(=O)(=O)C(F)(F)F)C(F)(F)F,2,1,545,2
338.98,0.1,0.1136,Training,1-butyl-1-methyl-pyrrolidinium bis(trifluoromethylsulfonyl)imide,CCCC[N+]1(CCCC1)C.C(F)(F)(F)S(=O)(=O)[N-]S(=O)(=O)C(F)(F)F,O=S([N-]S(=O)(C(F)(F)F)=O)(C(F)(F)F)=O.[N+]1(CCCC1)(C)CCCC,2,1,545,2
338.98,0.1,0.1136,Training,1-butyl-1-methyl-pyrrolidinium bis(trifluoromethylsulfonyl)imide,CCCC[N+]1(CCCC1)C.C(F)(F)(F)S(=O)(=O)[N-]S(=O)(=O)C(F)(F)F,C1C[N+](CC1)(C)CCCC.FC(F)(F)S(=O)([N-]S(C(F)(F)F)(=O)=O)=O,2,1,545,2
338.98,0.1,0.1136,Training,1-butyl-1-methyl-pyrrolidinium bis(trifluoromethylsulfonyl)imide,CCCC[N+]1(CCCC1)C.C(F)(F)(F)S(=O)(=O)[N-]S(=O)(=O)C(F)(F)F,C(CCC)[N+]1(CCCC1)C.S([N-]S(C(F)(F)F)(=O)=O)(=O)(=O)C(F)(F)F,2,1,545,2
338.98,0.1,0.1136,Training,1-butyl-1-methyl-pyrrolidinium bis(trifluoromethylsulfonyl)imide,CCCC[N+]1(CCCC1)C.C(F)(F)(F)S(=O)(=O)[N-]S(=O)(=O)C(F)(F)F,C(CCC)[N+]1(C)CCCC1.FC(F)(S([N-]S(C(F)(F)F)(=O)=O)(=O)=O)F,2,1,545,2
338.98,0.1,0.1136,Training,1-butyl-1-methyl-pyrrolidinium bis(trifluoromethylsulfonyl)imide,CCCC[N+]1(CCCC1)C.C(F)(F)(F)S(=O)(=O)[N-]S(=O)(=O)C(F)(F)F,[N+]1(CCCC1)(CCCC)C.[N-](S(=O)(=O)C(F)(F)F)S(=O)(C(F)(F)F)=O,2,1,545,2
338.98,0.1,0.1136,Training,1-butyl-1-methyl-pyrrolidinium bis(trifluoromethylsulfonyl)imide,CCCC[N+]1(CCCC1)C.C(F)(F)(F)S(=O)(=O)[N-]S(=O)(=O)C(F)(F)F,C1[N+](CCC1)(C)CCCC.O=S(C(F)(F)F)(=O)[N-]S(=O)(=O)C(F)(F)F,2,1,545,2
338.98,0.1,0.1136,Training,1-butyl-1-methyl-pyrrolidinium bis(trifluoromethylsulfonyl)imide,CCCC[N+]1(CCCC1)C.C(F)(F)(F)S(=O)(=O)[N-]S(=O)(=O)C(F)(F)F,C1CC[N+](C1)(CCCC)C.O=S(=O)([N-]S(=O)(C(F)(F)F)=O)C(F)(F)F,2,1,545,2
338.98,0.1,0.1136,Training,1-butyl-1-methyl-pyrrolidinium bis(trifluoromethylsulfonyl)imide,CCCC[N+]1(CCCC1)C.C(F)(F)(F)S(=O)(=O)[N-]S(=O)(=O)C(F)(F)F,C1CCC[N+]1(CCCC)C.FC(S([N-]S(=O)(C(F)(F)F)=O)(=O)=O)(F)F,2,1,545,2
338.98,0.1,0.1136,Training,1-butyl-1-methyl-pyrrolidinium bis(trifluoromethylsulfonyl)imide,CCCC[N+]1(CCCC1)C.C(F)(F)(F)S(=O)(=O)[N-]S(=O)(=O)C(F)(F)F,C1C[N+](CC1)(C)CCCC.O=S([N-]S(=O)(C(F)(F)F)=O)(C(F)(F)F)=O,2,1,545,2
353.98,0.1,0.1153,Training,1-butyl-1-methyl-pyrrolidinium bis(trifluoromethylsulfonyl)imide,CCCC[N+]1(CCCC1)C.C(F)(F)(F)S(=O)(=O)[N-]S(=O)(=O)C(F)(F)F,CCCC[N+]1(C)CCCC1.O=S(=O)([N-]S(=O)(=O)C(F)(F)F)C(F)(F)F,2,1,546,2
353.98,0.1,0.1153,Training,1-butyl-1-methyl-pyrrolidinium bis(trifluoromethylsulfonyl)imide,CCCC[N+]1(CCCC1)C.C(F)(F)(F)S(=O)(=O)[N-]S(=O)(=O)C(F)(F)F,C(CC[N+]1(C)CCCC1)C.O=S(=O)([N-]S(=O)(C(F)(F)F)=O)C(F)(F)F,2,1,546,2
353.98,0.1,0.1153,Training,1-butyl-1-methyl-pyrrolidinium bis(trifluoromethylsulfonyl)imide,CCCC[N+]1(CCCC1)C.C(F)(F)(F)S(=O)(=O)[N-]S(=O)(=O)C(F)(F)F,C(CCC)[N+]1(CCCC1)C.FC(F)(F)S([N-]S(=O)(=O)C(F)(F)F)(=O)=O,2,1,546,2
353.98,0.1,0.1153,Training,1-butyl-1-methyl-pyrrolidinium bis(trifluoromethylsulfonyl)imide,CCCC[N+]1(CCCC1)C.C(F)(F)(F)S(=O)(=O)[N-]S(=O)(=O)C(F)(F)F,FC(S(=O)([N-]S(=O)(C(F)(F)F)=O)=O)(F)F.[N+]1(C)(CCCC1)CCCC,2,1,546,2
353.98,0.1,0.1153,Training,1-butyl-1-methyl-pyrrolidinium bis(trifluoromethylsulfonyl)imide,CCCC[N+]1(CCCC1)C.C(F)(F)(F)S(=O)(=O)[N-]S(=O)(=O)C(F)(F)F,C1[N+](CCC1)(C)CCCC.O=S([N-]S(C(F)(F)F)(=O)=O)(C(F)(F)F)=O,2,1,546,2
353.98,0.1,0.1153,Training,1-butyl-1-methyl-pyrrolidinium bis(trifluoromethylsulfonyl)imide,CCCC[N+]1(CCCC1)C.C(F)(F)(F)S(=O)(=O)[N-]S(=O)(=O)C(F)(F)F,C[N+]1(CCCC)CCCC1.[N-](S(=O)(=O)C(F)(F)F)S(=O)(C(F)(F)F)=O,2,1,546,2
353.98,0.1,0.1153,Training,1-butyl-1-methyl-pyrrolidinium bis(trifluoromethylsulfonyl)imide,CCCC[N+]1(CCCC1)C.C(F)(F)(F)S(=O)(=O)[N-]S(=O)(=O)C(F)(F)F,C1CC[N+](C1)(C)CCCC.[N-](S(=O)(C(F)(F)F)=O)S(=O)(C(F)(F)F)=O,2,1,546,2
353.98,0.1,0.1153,Training,1-butyl-1-methyl-pyrrolidinium bis(trifluoromethylsulfonyl)imide,CCCC[N+]1(CCCC1)C.C(F)(F)(F)S(=O)(=O)[N-]S(=O)(=O)C(F)(F)F,CCCC[N+]1(C)CCCC1.O=S(C(F)(F)F)([N-]S(=O)(=O)C(F)(F)F)=O,2,1,546,2
353.98,0.1,0.1153,Training,1-butyl-1-methyl-pyrrolidinium bis(trifluoromethylsulfonyl)imide,CCCC[N+]1(CCCC1)C.C(F)(F)(F)S(=O)(=O)[N-]S(=O)(=O)C(F)(F)F,C(CC[N+]1(C)CCCC1)C.O=S(=O)(C(F)(F)F)[N-]S(C(F)(F)F)(=O)=O,2,1,546,2
353.98,0.1,0.1153,Training,1-butyl-1-methyl-pyrrolidinium bis(trifluoromethylsulfonyl)imide,CCCC[N+]1(CCCC1)C.C(F)(F)(F)S(=O)(=O)[N-]S(=O)(=O)C(F)(F)F,C1C[N+](C)(CC1)CCCC.FC(S(=O)(=O)[N-]S(C(F)(F)F)(=O)=O)(F)F,2,1,546,2
362.23,0.1,0.1135,Testing,1-butyl-1-methyl-pyrrolidinium bis(trifluoromethylsulfonyl)imide,CCCC[N+]1(CCCC1)C.C(F)(F)(F)S(=O)(=O)[N-]S(=O)(=O)C(F)(F)F,CCCC[N+]1(C)CCCC1.O=S(=O)([N-]S(=O)(=O)C(F)(F)F)C(F)(F)F,2,1,547,2
362.23,0.1,0.1135,Testing,1-butyl-1-methyl-pyrrolidinium bis(trifluoromethylsulfonyl)imide,CCCC[N+]1(CCCC1)C.C(F)(F)(F)S(=O)(=O)[N-]S(=O)(=O)C(F)(F)F,C1CC[N+](C)(CCCC)C1.FC(F)(F)S([N-]S(C(F)(F)F)(=O)=O)(=O)=O,2,1,547,2
362.23,0.1,0.1135,Testing,1-butyl-1-methyl-pyrrolidinium bis(trifluoromethylsulfonyl)imide,CCCC[N+]1(CCCC1)C.C(F)(F)(F)S(=O)(=O)[N-]S(=O)(=O)C(F)(F)F,C([N+]1(C)CCCC1)CCC.FC(F)(F)S(=O)([N-]S(=O)(=O)C(F)(F)F)=O,2,1,547,2
362.23,0.1,0.1135,Testing,1-butyl-1-methyl-pyrrolidinium bis(trifluoromethylsulfonyl)imide,CCCC[N+]1(CCCC1)C.C(F)(F)(F)S(=O)(=O)[N-]S(=O)(=O)C(F)(F)F,C1[N+](C)(CCC1)CCCC.FC(F)(S(=O)([N-]S(=O)(=O)C(F)(F)F)=O)F,2,1,547,2
362.23,0.1,0.1135,Testing,1-butyl-1-methyl-pyrrolidinium bis(trifluoromethylsulfonyl)imide,CCCC[N+]1(CCCC1)C.C(F)(F)(F)S(=O)(=O)[N-]S(=O)(=O)C(F)(F)F,C1[N+](CCCC)(C)CCC1.FC(F)(S(=O)(=O)[N-]S(=O)(=O)C(F)(F)F)F,2,1,547,2
362.23,0.1,0.1135,Testing,1-butyl-1-methyl-pyrrolidinium bis(trifluoromethylsulfonyl)imide,CCCC[N+]1(CCCC1)C.C(F)(F)(F)S(=O)(=O)[N-]S(=O)(=O)C(F)(F)F,C[N+]1(CCCC1)CCCC.FC(F)(S(=O)(=O)[N-]S(C(F)(F)F)(=O)=O)F,2,1,547,2
362.23,0.1,0.1135,Testing,1-butyl-1-methyl-pyrrolidinium bis(trifluoromethylsulfonyl)imide,CCCC[N+]1(CCCC1)C.C(F)(F)(F)S(=O)(=O)[N-]S(=O)(=O)C(F)(F)F,C1[N+](C)(CCC1)CCCC.O=S([N-]S(=O)(=O)C(F)(F)F)(=O)C(F)(F)F,2,1,547,2
362.23,0.1,0.1135,Testing,1-butyl-1-methyl-pyrrolidinium bis(trifluoromethylsulfonyl)imide,CCCC[N+]1(CCCC1)C.C(F)(F)(F)S(=O)(=O)[N-]S(=O)(=O)C(F)(F)F,C[N+]1(CCCC1)CCCC.[N-](S(=O)(=O)C(F)(F)F)S(=O)(=O)C(F)(F)F,2,1,547,2
362.23,0.1,0.1135,Testing,1-butyl-1-methyl-pyrrolidinium bis(trifluoromethylsulfonyl)imide,CCCC[N+]1(CCCC1)C.C(F)(F)(F)S(=O)(=O)[N-]S(=O)(=O)C(F)(F)F,CCCC[N+]1(CCCC1)C.O=S(C(F)(F)F)(=O)[N-]S(=O)(C(F)(F)F)=O,2,1,547,2
362.23,0.1,0.1135,Testing,1-butyl-1-methyl-pyrrolidinium bis(trifluoromethylsulfonyl)imide,CCCC[N+]1(CCCC1)C.C(F)(F)(F)S(=O)(=O)[N-]S(=O)(=O)C(F)(F)F,C(CC[N+]1(C)CCCC1)C.O=S([N-]S(C(F)(F)F)(=O)=O)(C(F)(F)F)=O,2,1,547,2
364.36,0.1,0.1142,Training,1-butyl-1-methyl-pyrrolidinium bis(trifluoromethylsulfonyl)imide,CCCC[N+]1(CCCC1)C.C(F)(F)(F)S(=O)(=O)[N-]S(=O)(=O)C(F)(F)F,CCCC[N+]1(C)CCCC1.O=S(=O)([N-]S(=O)(=O)C(F)(F)F)C(F)(F)F,2,1,548,2
364.36,0.1,0.1142,Training,1-butyl-1-methyl-pyrrolidinium bis(trifluoromethylsulfonyl)imide,CCCC[N+]1(CCCC1)C.C(F)(F)(F)S(=O)(=O)[N-]S(=O)(=O)C(F)(F)F,C(F)(F)(S([N-]S(=O)(C(F)(F)F)=O)(=O)=O)F.C([N+]1(CCCC1)C)CCC,2,1,548,2
364.36,0.1,0.1142,Training,1-butyl-1-methyl-pyrrolidinium bis(trifluoromethylsulfonyl)imide,CCCC[N+]1(CCCC1)C.C(F)(F)(F)S(=O)(=O)[N-]S(=O)(=O)C(F)(F)F,O=S(C(F)(F)F)(=O)[N-]S(C(F)(F)F)(=O)=O.[N+]1(CCCC1)(CCCC)C,2,1,548,2
364.36,0.1,0.1142,Training,1-butyl-1-methyl-pyrrolidinium bis(trifluoromethylsulfonyl)imide,CCCC[N+]1(CCCC1)C.C(F)(F)(F)S(=O)(=O)[N-]S(=O)(=O)C(F)(F)F,[N+]1(C)(CCCC)CCCC1.[N-](S(=O)(C(F)(F)F)=O)S(C(F)(F)F)(=O)=O,2,1,548,2
364.36,0.1,0.1142,Training,1-butyl-1-methyl-pyrrolidinium bis(trifluoromethylsulfonyl)imide,CCCC[N+]1(CCCC1)C.C(F)(F)(F)S(=O)(=O)[N-]S(=O)(=O)C(F)(F)F,CCCC[N+]1(C)CCCC1.S(=O)([N-]S(C(F)(F)F)(=O)=O)(=O)C(F)(F)F,2,1,548,2
364.36,0.1,0.1142,Training,1-butyl-1-methyl-pyrrolidinium bis(trifluoromethylsulfonyl)imide,CCCC[N+]1(CCCC1)C.C(F)(F)(F)S(=O)(=O)[N-]S(=O)(=O)C(F)(F)F,C([N+]1(CCCC1)C)CCC.FC(F)(F)S(=O)([N-]S(=O)(C(F)(F)F)=O)=O,2,1,548,2
364.36,0.1,0.1142,Training,1-butyl-1-methyl-pyrrolidinium bis(trifluoromethylsulfonyl)imide,CCCC[N+]1(CCCC1)C.C(F)(F)(F)S(=O)(=O)[N-]S(=O)(=O)C(F)(F)F,C1CC[N+](C1)(C)CCCC.O=S([N-]S(C(F)(F)F)(=O)=O)(=O)C(F)(F)F,2,1,548,2