T/K,P/MPa,TC/W m-1 K-1,Data type,Name,SMILES,Normalized SMILES,index,P/bar,RANDOM,IL
303.0,0.1,0.127,Training,1-hexyl-3-methylimidazolium bis(trifluoromethylsulfonyl)imide,CCCCCCN1C=C[N+](=C1)C.C(F)(F)(F)S(=O)(=O)[N-]S(=O)(=O)C(F)(F)F,C(F)(F)(S([N-]S(=O)(C(F)(F)F)=O)(=O)=O)F.n1(cc[n+](C)c1)CCCCCC,13,1,389,13
313.0,0.1,0.127,Training,1-hexyl-3-methylimidazolium bis(trifluoromethylsulfonyl)imide,CCCCCCN1C=C[N+](=C1)C.C(F)(F)(F)S(=O)(=O)[N-]S(=O)(=O)C(F)(F)F,CCCCCCn1cc[n+](C)c1.O=S(=O)([N-]S(=O)(=O)C(F)(F)F)C(F)(F)F,13,1,390,13
313.0,0.1,0.127,Training,1-hexyl-3-methylimidazolium bis(trifluoromethylsulfonyl)imide,CCCCCCN1C=C[N+](=C1)C.C(F)(F)(F)S(=O)(=O)[N-]S(=O)(=O)C(F)(F)F,C(Cn1c[n+](cc1)C)CCCC.O=S(C(F)(F)F)(=O)[N-]S(C(F)(F)F)(=O)=O,13,1,390,13
313.0,0.1,0.127,Training,1-hexyl-3-methylimidazolium bis(trifluoromethylsulfonyl)imide,CCCCCCN1C=C[N+](=C1)C.C(F)(F)(F)S(=O)(=O)[N-]S(=O)(=O)C(F)(F)F,C[n+]1ccn(c1)CCCCCC.S([N-]S(C(F)(F)F)(=O)=O)(=O)(C(F)(F)F)=O,13,1,390,13
313.0,0.1,0.127,Training,1-hexyl-3-methylimidazolium bis(trifluoromethylsulfonyl)imide,CCCCCCN1C=C[N+](=C1)C.C(F)(F)(F)S(=O)(=O)[N-]S(=O)(=O)C(F)(F)F,C(CCCn1c[n+](C)cc1)CC.FC(F)(S(=O)(=O)[N-]S(C(F)(F)F)(=O)=O)F,13,1,390,13
313.0,0.1,0.127,Training,1-hexyl-3-methylimidazolium bis(trifluoromethylsulfonyl)imide,CCCCCCN1C=C[N+](=C1)C.C(F)(F)(F)S(=O)(=O)[N-]S(=O)(=O)C(F)(F)F,O=S(C(F)(F)F)(=O)[N-]S(=O)(=O)C(F)(F)F.[n+]1(C)cn(cc1)CCCCCC,13,1,390,13
313.0,0.1,0.127,Training,1-hexyl-3-methylimidazolium bis(trifluoromethylsulfonyl)imide,CCCCCCN1C=C[N+](=C1)C.C(F)(F)(F)S(=O)(=O)[N-]S(=O)(=O)C(F)(F)F,C[n+]1cn(cc1)CCCCCC.O=S(=O)([N-]S(=O)(=O)C(F)(F)F)C(F)(F)F,13,1,390,13
313.0,0.1,0.127,Training,1-hexyl-3-methylimidazolium bis(trifluoromethylsulfonyl)imide,CCCCCCN1C=C[N+](=C1)C.C(F)(F)(F)S(=O)(=O)[N-]S(=O)(=O)C(F)(F)F,FC(S(=O)([N-]S(=O)(C(F)(F)F)=O)=O)(F)F.c1cn(CCCCCC)c[n+]1C,13,1,390,13
313.0,0.1,0.127,Training,1-hexyl-3-methylimidazolium bis(trifluoromethylsulfonyl)imide,CCCCCCN1C=C[N+](=C1)C.C(F)(F)(F)S(=O)(=O)[N-]S(=O)(=O)C(F)(F)F,C(n1c[n+](C)cc1)CCCCC.FC(F)(F)S(=O)([N-]S(=O)(=O)C(F)(F)F)=O,13,1,390,13
313.0,0.1,0.127,Training,1-hexyl-3-methylimidazolium bis(trifluoromethylsulfonyl)imide,CCCCCCN1C=C[N+](=C1)C.C(F)(F)(F)S(=O)(=O)[N-]S(=O)(=O)C(F)(F)F,O=S(C(F)(F)F)([N-]S(C(F)(F)F)(=O)=O)=O.[n+]1(C)ccn(c1)CCCCCC,13,1,390,13
313.0,0.1,0.127,Training,1-hexyl-3-methylimidazolium bis(trifluoromethylsulfonyl)imide,CCCCCCN1C=C[N+](=C1)C.C(F)(F)(F)S(=O)(=O)[N-]S(=O)(=O)C(F)(F)F,FC(F)(F)S(=O)([N-]S(C(F)(F)F)(=O)=O)=O.c1[n+](ccn1CCCCCC)C,13,1,390,13
323.0,0.1,0.126,Training,1-hexyl-3-methylimidazolium bis(trifluoromethylsulfonyl)imide,CCCCCCN1C=C[N+](=C1)C.C(F)(F)(F)S(=O)(=O)[N-]S(=O)(=O)C(F)(F)F,CCCCCCn1cc[n+](C)c1.O=S(=O)([N-]S(=O)(=O)C(F)(F)F)C(F)(F)F,13,1,391,13
323.0,0.1,0.126,Training,1-hexyl-3-methylimidazolium bis(trifluoromethylsulfonyl)imide,CCCCCCN1C=C[N+](=C1)C.C(F)(F)(F)S(=O)(=O)[N-]S(=O)(=O)C(F)(F)F,C(CC)CCCn1cc[n+](c1)C.[N-](S(C(F)(F)F)(=O)=O)S(=O)(C(F)(F)F)=O,13,1,391,13
323.0,0.1,0.126,Training,1-hexyl-3-methylimidazolium bis(trifluoromethylsulfonyl)imide,CCCCCCN1C=C[N+](=C1)C.C(F)(F)(F)S(=O)(=O)[N-]S(=O)(=O)C(F)(F)F,O=S(C(F)(F)F)(=O)[N-]S(C(F)(F)F)(=O)=O.n1(CCCCCC)c[n+](cc1)C,13,1,391,13
323.0,0.1,0.126,Training,1-hexyl-3-methylimidazolium bis(trifluoromethylsulfonyl)imide,CCCCCCN1C=C[N+](=C1)C.C(F)(F)(F)S(=O)(=O)[N-]S(=O)(=O)C(F)(F)F,C(CC)CCCn1c[n+](cc1)C.O=S([N-]S(=O)(C(F)(F)F)=O)(=O)C(F)(F)F,13,1,391,13
323.0,0.1,0.126,Training,1-hexyl-3-methylimidazolium bis(trifluoromethylsulfonyl)imide,CCCCCCN1C=C[N+](=C1)C.C(F)(F)(F)S(=O)(=O)[N-]S(=O)(=O)C(F)(F)F,S([N-]S(=O)(=O)C(F)(F)F)(=O)(C(F)(F)F)=O.n1(CCCCCC)c[n+](cc1)C,13,1,391,13
323.0,0.1,0.126,Training,1-hexyl-3-methylimidazolium bis(trifluoromethylsulfonyl)imide,CCCCCCN1C=C[N+](=C1)C.C(F)(F)(F)S(=O)(=O)[N-]S(=O)(=O)C(F)(F)F,FC(F)(F)S([N-]S(=O)(=O)C(F)(F)F)(=O)=O.c1n(CCCCCC)cc[n+]1C,13,1,391,13
323.0,0.1,0.126,Training,1-hexyl-3-methylimidazolium bis(trifluoromethylsulfonyl)imide,CCCCCCN1C=C[N+](=C1)C.C(F)(F)(F)S(=O)(=O)[N-]S(=O)(=O)C(F)(F)F,C(Cn1cc[n+](C)c1)CCCC.FC(F)(F)S([N-]S(=O)(C(F)(F)F)=O)(=O)=O,13,1,391,13
323.0,0.1,0.126,Training,1-hexyl-3-methylimidazolium bis(trifluoromethylsulfonyl)imide,CCCCCCN1C=C[N+](=C1)C.C(F)(F)(F)S(=O)(=O)[N-]S(=O)(=O)C(F)(F)F,C(n1cc[n+](c1)C)CCCCC.[N-](S(=O)(C(F)(F)F)=O)S(=O)(=O)C(F)(F)F,13,1,391,13
323.0,0.1,0.126,Training,1-hexyl-3-methylimidazolium bis(trifluoromethylsulfonyl)imide,CCCCCCN1C=C[N+](=C1)C.C(F)(F)(F)S(=O)(=O)[N-]S(=O)(=O)C(F)(F)F,[N-](S(=O)(=O)C(F)(F)F)S(C(F)(F)F)(=O)=O.n1(CCCCCC)cc[n+](c1)C,13,1,391,13
323.0,0.1,0.126,Training,1-hexyl-3-methylimidazolium bis(trifluoromethylsulfonyl)imide,CCCCCCN1C=C[N+](=C1)C.C(F)(F)(F)S(=O)(=O)[N-]S(=O)(=O)C(F)(F)F,C(C)CCCCn1c[n+](C)cc1.C(F)(F)(F)S(=O)([N-]S(C(F)(F)F)(=O)=O)=O,13,1,391,13
333.0,0.1,0.125,Testing,1-hexyl-3-methylimidazolium bis(trifluoromethylsulfonyl)imide,CCCCCCN1C=C[N+](=C1)C.C(F)(F)(F)S(=O)(=O)[N-]S(=O)(=O)C(F)(F)F,CCCCCCn1cc[n+](C)c1.O=S(=O)([N-]S(=O)(=O)C(F)(F)F)C(F)(F)F,13,1,392,13
333.0,0.1,0.125,Testing,1-hexyl-3-methylimidazolium bis(trifluoromethylsulfonyl)imide,CCCCCCN1C=C[N+](=C1)C.C(F)(F)(F)S(=O)(=O)[N-]S(=O)(=O)C(F)(F)F,O=S([N-]S(=O)(=O)C(F)(F)F)(C(F)(F)F)=O.c1n(cc[n+]1C)CCCCCC,13,1,392,13
333.0,0.1,0.125,Testing,1-hexyl-3-methylimidazolium bis(trifluoromethylsulfonyl)imide,CCCCCCN1C=C[N+](=C1)C.C(F)(F)(F)S(=O)(=O)[N-]S(=O)(=O)C(F)(F)F,C(C)CCCCn1c[n+](cc1)C.FC(F)(F)S(=O)([N-]S(=O)(C(F)(F)F)=O)=O,13,1,392,13
333.0,0.1,0.125,Testing,1-hexyl-3-methylimidazolium bis(trifluoromethylsulfonyl)imide,CCCCCCN1C=C[N+](=C1)C.C(F)(F)(F)S(=O)(=O)[N-]S(=O)(=O)C(F)(F)F,C(Cn1c[n+](cc1)C)CCCC.FC(F)(S(=O)([N-]S(=O)(=O)C(F)(F)F)=O)F,13,1,392,13
333.0,0.1,0.125,Testing,1-hexyl-3-methylimidazolium bis(trifluoromethylsulfonyl)imide,CCCCCCN1C=C[N+](=C1)C.C(F)(F)(F)S(=O)(=O)[N-]S(=O)(=O)C(F)(F)F,C(F)(S(=O)([N-]S(C(F)(F)F)(=O)=O)=O)(F)F.[n+]1(ccn(c1)CCCCCC)C,13,1,392,13
333.0,0.1,0.125,Testing,1-hexyl-3-methylimidazolium bis(trifluoromethylsulfonyl)imide,CCCCCCN1C=C[N+](=C1)C.C(F)(F)(F)S(=O)(=O)[N-]S(=O)(=O)C(F)(F)F,C(CCn1c[n+](C)cc1)CCC.C(F)(F)(F)S([N-]S(=O)(C(F)(F)F)=O)(=O)=O,13,1,392,13
333.0,0.1,0.125,Testing,1-hexyl-3-methylimidazolium bis(trifluoromethylsulfonyl)imide,CCCCCCN1C=C[N+](=C1)C.C(F)(F)(F)S(=O)(=O)[N-]S(=O)(=O)C(F)(F)F,C(C)CCCCn1cc[n+](c1)C.FC(F)(S([N-]S(=O)(C(F)(F)F)=O)(=O)=O)F,13,1,392,13
333.0,0.1,0.125,Testing,1-hexyl-3-methylimidazolium bis(trifluoromethylsulfonyl)imide,CCCCCCN1C=C[N+](=C1)C.C(F)(F)(F)S(=O)(=O)[N-]S(=O)(=O)C(F)(F)F,FC(F)(F)S(=O)([N-]S(=O)(=O)C(F)(F)F)=O.c1c[n+](C)cn1CCCCCC,13,1,392,13
333.0,0.1,0.125,Testing,1-hexyl-3-methylimidazolium bis(trifluoromethylsulfonyl)imide,CCCCCCN1C=C[N+](=C1)C.C(F)(F)(F)S(=O)(=O)[N-]S(=O)(=O)C(F)(F)F,FC(F)(S(=O)([N-]S(C(F)(F)F)(=O)=O)=O)F.c1cn(CCCCCC)c[n+]1C,13,1,392,13
333.0,0.1,0.125,Testing,1-hexyl-3-methylimidazolium bis(trifluoromethylsulfonyl)imide,CCCCCCN1C=C[N+](=C1)C.C(F)(F)(F)S(=O)(=O)[N-]S(=O)(=O)C(F)(F)F,S(C(F)(F)F)([N-]S(C(F)(F)F)(=O)=O)(=O)=O.[n+]1(C)ccn(c1)CCCCCC,13,1,392,13
343.0,0.1,0.125,Testing,1-hexyl-3-methylimidazolium bis(trifluoromethylsulfonyl)imide,CCCCCCN1C=C[N+](=C1)C.C(F)(F)(F)S(=O)(=O)[N-]S(=O)(=O)C(F)(F)F,CCCCCCn1cc[n+](C)c1.O=S(=O)([N-]S(=O)(=O)C(F)(F)F)C(F)(F)F,13,1,393,13
343.0,0.1,0.125,Testing,1-hexyl-3-methylimidazolium bis(trifluoromethylsulfonyl)imide,CCCCCCN1C=C[N+](=C1)C.C(F)(F)(F)S(=O)(=O)[N-]S(=O)(=O)C(F)(F)F,C(CCCCn1cc[n+](C)c1)C.FC(F)(F)S([N-]S(=O)(C(F)(F)F)=O)(=O)=O,13,1,393,13
343.0,0.1,0.125,Testing,1-hexyl-3-methylimidazolium bis(trifluoromethylsulfonyl)imide,CCCCCCN1C=C[N+](=C1)C.C(F)(F)(F)S(=O)(=O)[N-]S(=O)(=O)C(F)(F)F,O=S(C(F)(F)F)([N-]S(C(F)(F)F)(=O)=O)=O.n1(CCCCCC)cc[n+](c1)C,13,1,393,13
343.0,0.1,0.125,Testing,1-hexyl-3-methylimidazolium bis(trifluoromethylsulfonyl)imide,CCCCCCN1C=C[N+](=C1)C.C(F)(F)(F)S(=O)(=O)[N-]S(=O)(=O)C(F)(F)F,O=S(=O)([N-]S(C(F)(F)F)(=O)=O)C(F)(F)F.c1n(cc[n+]1C)CCCCCC,13,1,393,13
343.0,0.1,0.125,Testing,1-hexyl-3-methylimidazolium bis(trifluoromethylsulfonyl)imide,CCCCCCN1C=C[N+](=C1)C.C(F)(F)(F)S(=O)(=O)[N-]S(=O)(=O)C(F)(F)F,CCCCCCn1c[n+](cc1)C.S(C(F)(F)F)(=O)(=O)[N-]S(=O)(C(F)(F)F)=O,13,1,393,13
343.0,0.1,0.125,Testing,1-hexyl-3-methylimidazolium bis(trifluoromethylsulfonyl)imide,CCCCCCN1C=C[N+](=C1)C.C(F)(F)(F)S(=O)(=O)[N-]S(=O)(=O)C(F)(F)F,C(F)(F)(F)S([N-]S(=O)(C(F)(F)F)=O)(=O)=O.c1[n+](cn(c1)CCCCCC)C,13,1,393,13
343.0,0.1,0.125,Testing,1-hexyl-3-methylimidazolium bis(trifluoromethylsulfonyl)imide,CCCCCCN1C=C[N+](=C1)C.C(F)(F)(F)S(=O)(=O)[N-]S(=O)(=O)C(F)(F)F,CCCCCCn1cc[n+](c1)C.S(C(F)(F)F)(=O)(=O)[N-]S(=O)(C(F)(F)F)=O,13,1,393,13
343.0,0.1,0.125,Testing,1-hexyl-3-methylimidazolium bis(trifluoromethylsulfonyl)imide,CCCCCCN1C=C[N+](=C1)C.C(F)(F)(F)S(=O)(=O)[N-]S(=O)(=O)C(F)(F)F,O=S(=O)(C(F)(F)F)[N-]S(=O)(=O)C(F)(F)F.c1[n+](C)cn(c1)CCCCCC,13,1,393,13
343.0,0.1,0.125,Testing,1-hexyl-3-methylimidazolium bis(trifluoromethylsulfonyl)imide,CCCCCCN1C=C[N+](=C1)C.C(F)(F)(F)S(=O)(=O)[N-]S(=O)(=O)C(F)(F)F,C(CCCCC)n1c[n+](C)cc1.FC(S([N-]S(=O)(=O)C(F)(F)F)(=O)=O)(F)F,13,1,393,13
343.0,0.1,0.125,Testing,1-hexyl-3-methylimidazolium bis(trifluoromethylsulfonyl)imide,CCCCCCN1C=C[N+](=C1)C.C(F)(F)(F)S(=O)(=O)[N-]S(=O)(=O)C(F)(F)F,C(Cn1c[n+](cc1)C)CCCC.FC(F)(F)S(=O)([N-]S(C(F)(F)F)(=O)=O)=O,13,1,393,13
353.0,0.1,0.125,Training,1-hexyl-3-methylimidazolium bis(trifluoromethylsulfonyl)imide,CCCCCCN1C=C[N+](=C1)C.C(F)(F)(F)S(=O)(=O)[N-]S(=O)(=O)C(F)(F)F,CCCCCCn1cc[n+](C)c1.O=S(=O)([N-]S(=O)(=O)C(F)(F)F)C(F)(F)F,13,1,394,13
353.0,0.1,0.125,Training,1-hexyl-3-methylimidazolium bis(trifluoromethylsulfonyl)imide,CCCCCCN1C=C[N+](=C1)C.C(F)(F)(F)S(=O)(=O)[N-]S(=O)(=O)C(F)(F)F,S(C(F)(F)F)(=O)([N-]S(=O)(C(F)(F)F)=O)=O.n1(cc[n+](c1)C)CCCCCC,13,1,394,13
353.0,0.1,0.125,Training,1-hexyl-3-methylimidazolium bis(trifluoromethylsulfonyl)imide,CCCCCCN1C=C[N+](=C1)C.C(F)(F)(F)S(=O)(=O)[N-]S(=O)(=O)C(F)(F)F,FC(S([N-]S(=O)(=O)C(F)(F)F)(=O)=O)(F)F.c1n(CCCCCC)c[n+](C)c1,13,1,394,13
353.0,0.1,0.125,Training,1-hexyl-3-methylimidazolium bis(trifluoromethylsulfonyl)imide,CCCCCCN1C=C[N+](=C1)C.C(F)(F)(F)S(=O)(=O)[N-]S(=O)(=O)C(F)(F)F,C(CCCCn1cc[n+](c1)C)C.O=S(=O)([N-]S(C(F)(F)F)(=O)=O)C(F)(F)F,13,1,394,13
353.0,0.1,0.125,Training,1-hexyl-3-methylimidazolium bis(trifluoromethylsulfonyl)imide,CCCCCCN1C=C[N+](=C1)C.C(F)(F)(F)S(=O)(=O)[N-]S(=O)(=O)C(F)(F)F,C(Cn1c[n+](C)cc1)CCCC.C(S([N-]S(=O)(=O)C(F)(F)F)(=O)=O)(F)(F)F,13,1,394,13
353.0,0.1,0.125,Training,1-hexyl-3-methylimidazolium bis(trifluoromethylsulfonyl)imide,CCCCCCN1C=C[N+](=C1)C.C(F)(F)(F)S(=O)(=O)[N-]S(=O)(=O)C(F)(F)F,C(CCCn1cc[n+](C)c1)CC.FC(S([N-]S(=O)(C(F)(F)F)=O)(=O)=O)(F)F,13,1,394,13
353.0,0.1,0.125,Training,1-hexyl-3-methylimidazolium bis(trifluoromethylsulfonyl)imide,CCCCCCN1C=C[N+](=C1)C.C(F)(F)(F)S(=O)(=O)[N-]S(=O)(=O)C(F)(F)F,C(C)CCCCn1c[n+](C)cc1.[N-](S(=O)(=O)C(F)(F)F)S(C(F)(F)F)(=O)=O,13,1,394,13
353.0,0.1,0.125,Training,1-hexyl-3-methylimidazolium bis(trifluoromethylsulfonyl)imide,CCCCCCN1C=C[N+](=C1)C.C(F)(F)(F)S(=O)(=O)[N-]S(=O)(=O)C(F)(F)F,C(CCn1c[n+](cc1)C)CCC.O=S([N-]S(=O)(=O)C(F)(F)F)(C(F)(F)F)=O,13,1,394,13
353.0,0.1,0.125,Training,1-hexyl-3-methylimidazolium bis(trifluoromethylsulfonyl)imide,CCCCCCN1C=C[N+](=C1)C.C(F)(F)(F)S(=O)(=O)[N-]S(=O)(=O)C(F)(F)F,C(F)(F)(F)S(=O)(=O)[N-]S(C(F)(F)F)(=O)=O.c1n(cc[n+]1C)CCCCCC,13,1,394,13
353.0,0.1,0.125,Training,1-hexyl-3-methylimidazolium bis(trifluoromethylsulfonyl)imide,CCCCCCN1C=C[N+](=C1)C.C(F)(F)(F)S(=O)(=O)[N-]S(=O)(=O)C(F)(F)F,C(F)(F)(S([N-]S(=O)(=O)C(F)(F)F)(=O)=O)F.c1[n+](C)ccn1CCCCCC,13,1,394,13
293.0,0.1,0.128,Training,1-octyl-3-methylimidazolium bis(trifluoromethylsulfonyl)imide,CCCCCCCCN1C=C[N+](=C1)C.C(F)(F)(F)S(=O)(=O)[N-]S(=O)(=O)C(F)(F)F,CCCCCCCCn1cc[n+](C)c1.O=S(=O)([N-]S(=O)(=O)C(F)(F)F)C(F)(F)F,30,1,395,30
293.0,0.1,0.128,Training,1-octyl-3-methylimidazolium bis(trifluoromethylsulfonyl)imide,CCCCCCCCN1C=C[N+](=C1)C.C(F)(F)(F)S(=O)(=O)[N-]S(=O)(=O)C(F)(F)F,C(CCn1c[n+](cc1)C)CCCCC.S(C(F)(F)F)(=O)([N-]S(=O)(=O)C(F)(F)F)=O,30,1,395,30
293.0,0.1,0.128,Training,1-octyl-3-methylimidazolium bis(trifluoromethylsulfonyl)imide,CCCCCCCCN1C=C[N+](=C1)C.C(F)(F)(F)S(=O)(=O)[N-]S(=O)(=O)C(F)(F)F,C(CCn1c[n+](cc1)C)CCCCC.O=S([N-]S(C(F)(F)F)(=O)=O)(=O)C(F)(F)F,30,1,395,30
293.0,0.1,0.128,Training,1-octyl-3-methylimidazolium bis(trifluoromethylsulfonyl)imide,CCCCCCCCN1C=C[N+](=C1)C.C(F)(F)(F)S(=O)(=O)[N-]S(=O)(=O)C(F)(F)F,C(CCn1c[n+](cc1)C)CCCCC.C(F)(S(=O)(=O)[N-]S(=O)(=O)C(F)(F)F)(F)F,30,1,395,30
293.0,0.1,0.128,Training,1-octyl-3-methylimidazolium bis(trifluoromethylsulfonyl)imide,CCCCCCCCN1C=C[N+](=C1)C.C(F)(F)(F)S(=O)(=O)[N-]S(=O)(=O)C(F)(F)F,O=S([N-]S(=O)(=O)C(F)(F)F)(=O)C(F)(F)F.c1n(cc[n+]1C)CCCCCCCC,30,1,395,30
293.0,0.1,0.128,Training,1-octyl-3-methylimidazolium bis(trifluoromethylsulfonyl)imide,CCCCCCCCN1C=C[N+](=C1)C.C(F)(F)(F)S(=O)(=O)[N-]S(=O)(=O)C(F)(F)F,O=S([N-]S(=O)(=O)C(F)(F)F)(=O)C(F)(F)F.c1c[n+](C)cn1CCCCCCCC,30,1,395,30
293.0,0.1,0.128,Training,1-octyl-3-methylimidazolium bis(trifluoromethylsulfonyl)imide,CCCCCCCCN1C=C[N+](=C1)C.C(F)(F)(F)S(=O)(=O)[N-]S(=O)(=O)C(F)(F)F,C(CCCn1cc[n+](C)c1)CCCC.O=S(C(F)(F)F)(=O)[N-]S(=O)(=O)C(F)(F)F,30,1,395,30
293.0,0.1,0.128,Training,1-octyl-3-methylimidazolium bis(trifluoromethylsulfonyl)imide,CCCCCCCCN1C=C[N+](=C1)C.C(F)(F)(F)S(=O)(=O)[N-]S(=O)(=O)C(F)(F)F,C(CCCCCCn1c[n+](C)cc1)C.S([N-]S(C(F)(F)F)(=O)=O)(=O)(=O)C(F)(F)F,30,1,395,30
293.0,0.1,0.128,Training,1-octyl-3-methylimidazolium bis(trifluoromethylsulfonyl)imide,CCCCCCCCN1C=C[N+](=C1)C.C(F)(F)(F)S(=O)(=O)[N-]S(=O)(=O)C(F)(F)F,C(S(=O)([N-]S(C(F)(F)F)(=O)=O)=O)(F)(F)F.c1cn(c[n+]1C)CCCCCCCC,30,1,395,30
293.0,0.1,0.128,Training,1-octyl-3-methylimidazolium bis(trifluoromethylsulfonyl)imide,CCCCCCCCN1C=C[N+](=C1)C.C(F)(F)(F)S(=O)(=O)[N-]S(=O)(=O)C(F)(F)F,C(F)(F)(F)S(=O)([N-]S(=O)(C(F)(F)F)=O)=O.n1(cc[n+](C)c1)CCCCCCCC,30,1,395,30
303.0,0.1,0.128,Training,1-octyl-3-methylimidazolium bis(trifluoromethylsulfonyl)imide,CCCCCCCCN1C=C[N+](=C1)C.C(F)(F)(F)S(=O)(=O)[N-]S(=O)(=O)C(F)(F)F,CCCCCCCCn1cc[n+](C)c1.O=S(=O)([N-]S(=O)(=O)C(F)(F)F)C(F)(F)F,30,1,396,30
303.0,0.1,0.128,Training,1-octyl-3-methylimidazolium bis(trifluoromethylsulfonyl)imide,CCCCCCCCN1C=C[N+](=C1)C.C(F)(F)(F)S(=O)(=O)[N-]S(=O)(=O)C(F)(F)F,C(CCCCCCn1c[n+](cc1)C)C.C(F)(S(=O)([N-]S(=O)(C(F)(F)F)=O)=O)(F)F,30,1,396,30
303.0,0.1,0.128,Training,1-octyl-3-methylimidazolium bis(trifluoromethylsulfonyl)imide,CCCCCCCCN1C=C[N+](=C1)C.C(F)(F)(F)S(=O)(=O)[N-]S(=O)(=O)C(F)(F)F,C(CCCCCn1c[n+](C)cc1)CC.S(=O)(=O)([N-]S(=O)(=O)C(F)(F)F)C(F)(F)F,30,1,396,30
303.0,0.1,0.128,Training,1-octyl-3-methylimidazolium bis(trifluoromethylsulfonyl)imide,CCCCCCCCN1C=C[N+](=C1)C.C(F)(F)(F)S(=O)(=O)[N-]S(=O)(=O)C(F)(F)F,C[n+]1cn(CCCCCCCC)cc1.FC(S(=O)([N-]S(C(F)(F)F)(=O)=O)=O)(F)F,30,1,396,30
303.0,0.1,0.128,Training,1-octyl-3-methylimidazolium bis(trifluoromethylsulfonyl)imide,CCCCCCCCN1C=C[N+](=C1)C.C(F)(F)(F)S(=O)(=O)[N-]S(=O)(=O)C(F)(F)F,C(C)CCCCCCn1cc[n+](c1)C.S(=O)([N-]S(C(F)(F)F)(=O)=O)(=O)C(F)(F)F,30,1,396,30
303.0,0.1,0.128,Training,1-octyl-3-methylimidazolium bis(trifluoromethylsulfonyl)imide,CCCCCCCCN1C=C[N+](=C1)C.C(F)(F)(F)S(=O)(=O)[N-]S(=O)(=O)C(F)(F)F,C(CCCCCC)Cn1cc[n+](c1)C.O=S([N-]S(=O)(C(F)(F)F)=O)(=O)C(F)(F)F,30,1,396,30
303.0,0.1,0.128,Training,1-octyl-3-methylimidazolium bis(trifluoromethylsulfonyl)imide,CCCCCCCCN1C=C[N+](=C1)C.C(F)(F)(F)S(=O)(=O)[N-]S(=O)(=O)C(F)(F)F,CCCCCCCCn1cc[n+](c1)C.FC(F)(S(=O)([N-]S(=O)(=O)C(F)(F)F)=O)F,30,1,396,30
303.0,0.1,0.128,Training,1-octyl-3-methylimidazolium bis(trifluoromethylsulfonyl)imide,CCCCCCCCN1C=C[N+](=C1)C.C(F)(F)(F)S(=O)(=O)[N-]S(=O)(=O)C(F)(F)F,FC(F)(F)S([N-]S(=O)(C(F)(F)F)=O)(=O)=O.n1(cc[n+](c1)C)CCCCCCCC,30,1,396,30
303.0,0.1,0.128,Training,1-octyl-3-methylimidazolium bis(trifluoromethylsulfonyl)imide,CCCCCCCCN1C=C[N+](=C1)C.C(F)(F)(F)S(=O)(=O)[N-]S(=O)(=O)C(F)(F)F,O=S([N-]S(C(F)(F)F)(=O)=O)(C(F)(F)F)=O.c1[n+](cn(c1)CCCCCCCC)C,30,1,396,30
303.0,0.1,0.128,Training,1-octyl-3-methylimidazolium bis(trifluoromethylsulfonyl)imide,CCCCCCCCN1C=C[N+](=C1)C.C(F)(F)(F)S(=O)(=O)[N-]S(=O)(=O)C(F)(F)F,C(CCCCCn1cc[n+](C)c1)CC.S(=O)(C(F)(F)F)([N-]S(C(F)(F)F)(=O)=O)=O,30,1,396,30
313.0,0.1,0.128,Training,1-octyl-3-methylimidazolium bis(trifluoromethylsulfonyl)imide,CCCCCCCCN1C=C[N+](=C1)C.C(F)(F)(F)S(=O)(=O)[N-]S(=O)(=O)C(F)(F)F,CCCCCCCCn1cc[n+](C)c1.O=S(=O)([N-]S(=O)(=O)C(F)(F)F)C(F)(F)F,30,1,397,30
313.0,0.1,0.128,Training,1-octyl-3-methylimidazolium bis(trifluoromethylsulfonyl)imide,CCCCCCCCN1C=C[N+](=C1)C.C(F)(F)(F)S(=O)(=O)[N-]S(=O)(=O)C(F)(F)F,C(F)(F)(F)S([N-]S(=O)(=O)C(F)(F)F)(=O)=O.c1c[n+](C)cn1CCCCCCCC,30,1,397,30
313.0,0.1,0.128,Training,1-octyl-3-methylimidazolium bis(trifluoromethylsulfonyl)imide,CCCCCCCCN1C=C[N+](=C1)C.C(F)(F)(F)S(=O)(=O)[N-]S(=O)(=O)C(F)(F)F,C(CCCCn1cc[n+](C)c1)CCC.FC(F)(F)S([N-]S(=O)(C(F)(F)F)=O)(=O)=O,30,1,397,30
313.0,0.1,0.128,Training,1-octyl-3-methylimidazolium bis(trifluoromethylsulfonyl)imide,CCCCCCCCN1C=C[N+](=C1)C.C(F)(F)(F)S(=O)(=O)[N-]S(=O)(=O)C(F)(F)F,C(CCCCn1c[n+](cc1)C)CCC.O=S([N-]S(=O)(C(F)(F)F)=O)(=O)C(F)(F)F,30,1,397,30
313.0,0.1,0.128,Training,1-octyl-3-methylimidazolium bis(trifluoromethylsulfonyl)imide,CCCCCCCCN1C=C[N+](=C1)C.C(F)(F)(F)S(=O)(=O)[N-]S(=O)(=O)C(F)(F)F,C(CCCC)CCCn1cc[n+](C)c1.S(C(F)(F)F)(=O)([N-]S(=O)(=O)C(F)(F)F)=O,30,1,397,30
313.0,0.1,0.128,Training,1-octyl-3-methylimidazolium bis(trifluoromethylsulfonyl)imide,CCCCCCCCN1C=C[N+](=C1)C.C(F)(F)(F)S(=O)(=O)[N-]S(=O)(=O)C(F)(F)F,O=S([N-]S(C(F)(F)F)(=O)=O)(=O)C(F)(F)F.c1cn(c[n+]1C)CCCCCCCC,30,1,397,30
313.0,0.1,0.128,Training,1-octyl-3-methylimidazolium bis(trifluoromethylsulfonyl)imide,CCCCCCCCN1C=C[N+](=C1)C.C(F)(F)(F)S(=O)(=O)[N-]S(=O)(=O)C(F)(F)F,C[n+]1ccn(c1)CCCCCCCC.FC(S(=O)(=O)[N-]S(C(F)(F)F)(=O)=O)(F)F,30,1,397,30
313.0,0.1,0.128,Training,1-octyl-3-methylimidazolium bis(trifluoromethylsulfonyl)imide,CCCCCCCCN1C=C[N+](=C1)C.C(F)(F)(F)S(=O)(=O)[N-]S(=O)(=O)C(F)(F)F,C(S([N-]S(=O)(C(F)(F)F)=O)(=O)=O)(F)(F)F.[n+]1(ccn(c1)CCCCCCCC)C,30,1,397,30
313.0,0.1,0.128,Training,1-octyl-3-methylimidazolium bis(trifluoromethylsulfonyl)imide,CCCCCCCCN1C=C[N+](=C1)C.C(F)(F)(F)S(=O)(=O)[N-]S(=O)(=O)C(F)(F)F,CCCCCCCCn1c[n+](C)cc1.O=S([N-]S(C(F)(F)F)(=O)=O)(=O)C(F)(F)F,30,1,397,30
313.0,0.1,0.128,Training,1-octyl-3-methylimidazolium bis(trifluoromethylsulfonyl)imide,CCCCCCCCN1C=C[N+](=C1)C.C(F)(F)(F)S(=O)(=O)[N-]S(=O)(=O)C(F)(F)F,C(CCCCCCC)n1c[n+](C)cc1.O=S(=O)(C(F)(F)F)[N-]S(C(F)(F)F)(=O)=O,30,1,397,30
323.0,0.1,0.126,Testing,1-octyl-3-methylimidazolium bis(trifluoromethylsulfonyl)imide,CCCCCCCCN1C=C[N+](=C1)C.C(F)(F)(F)S(=O)(=O)[N-]S(=O)(=O)C(F)(F)F,CCCCCCCCn1cc[n+](C)c1.O=S(=O)([N-]S(=O)(=O)C(F)(F)F)C(F)(F)F,30,1,398,30
323.0,0.1,0.126,Testing,1-octyl-3-methylimidazolium bis(trifluoromethylsulfonyl)imide,CCCCCCCCN1C=C[N+](=C1)C.C(F)(F)(F)S(=O)(=O)[N-]S(=O)(=O)C(F)(F)F,C(C)CCCCCCn1cc[n+](C)c1.FC(F)(F)S(=O)(=O)[N-]S(=O)(C(F)(F)F)=O,30,1,398,30
323.0,0.1,0.126,Testing,1-octyl-3-methylimidazolium bis(trifluoromethylsulfonyl)imide,CCCCCCCCN1C=C[N+](=C1)C.C(F)(F)(F)S(=O)(=O)[N-]S(=O)(=O)C(F)(F)F,CCCCCCCCn1c[n+](C)cc1.FC(S([N-]S(=O)(C(F)(F)F)=O)(=O)=O)(F)F,30,1,398,30
323.0,0.1,0.126,Testing,1-octyl-3-methylimidazolium bis(trifluoromethylsulfonyl)imide,CCCCCCCCN1C=C[N+](=C1)C.C(F)(F)(F)S(=O)(=O)[N-]S(=O)(=O)C(F)(F)F,O=S(=O)(C(F)(F)F)[N-]S(C(F)(F)F)(=O)=O.c1c[n+](cn1CCCCCCCC)C,30,1,398,30
323.0,0.1,0.126,Testing,1-octyl-3-methylimidazolium bis(trifluoromethylsulfonyl)imide,CCCCCCCCN1C=C[N+](=C1)C.C(F)(F)(F)S(=O)(=O)[N-]S(=O)(=O)C(F)(F)F,C[n+]1cn(cc1)CCCCCCCC.S(=O)(=O)([N-]S(=O)(=O)C(F)(F)F)C(F)(F)F,30,1,398,30
323.0,0.1,0.126,Testing,1-octyl-3-methylimidazolium bis(trifluoromethylsulfonyl)imide,CCCCCCCCN1C=C[N+](=C1)C.C(F)(F)(F)S(=O)(=O)[N-]S(=O)(=O)C(F)(F)F,C(CCn1cc[n+](C)c1)CCCCC.O=S(=O)(C(F)(F)F)[N-]S(=O)(C(F)(F)F)=O,30,1,398,30
323.0,0.1,0.126,Testing,1-octyl-3-methylimidazolium bis(trifluoromethylsulfonyl)imide,CCCCCCCCN1C=C[N+](=C1)C.C(F)(F)(F)S(=O)(=O)[N-]S(=O)(=O)C(F)(F)F,C(n1cc[n+](C)c1)CCCCCCC.FC(F)(F)S(=O)(=O)[N-]S(=O)(=O)C(F)(F)F,30,1,398,30