T/K,P/MPa,TC/W m-1 K-1,Data type,Name,SMILES,Normalized SMILES,index,P/bar,RANDOM,IL
353.15,0.1,0.148,Training,tetrabutylphosphonium prolinate,CCCC[P+](CCCC)(CCCC)CCCC.C1CC(NC1)C(=O)[O-],CCCC[P+](CCCC)(CCCC)CCCC.N1C(CCC1)C([O-])=O,26,1,368,26
353.15,0.1,0.148,Training,tetrabutylphosphonium prolinate,CCCC[P+](CCCC)(CCCC)CCCC.C1CC(NC1)C(=O)[O-],C(CC[P+](CCCC)(CCCC)CCCC)C.C([O-])(C1CCCN1)=O,26,1,368,26
353.15,0.1,0.148,Training,tetrabutylphosphonium prolinate,CCCC[P+](CCCC)(CCCC)CCCC.C1CC(NC1)C(=O)[O-],C1CCC(C(=O)[O-])N1.CCCC[P+](CCCC)(CCCC)CCCC,26,1,368,26
353.15,0.1,0.148,Training,tetrabutylphosphonium prolinate,CCCC[P+](CCCC)(CCCC)CCCC.C1CC(NC1)C(=O)[O-],C(=O)([O-])C1NCCC1.CCCC[P+](CCCC)(CCCC)CCCC,26,1,368,26
353.15,0.1,0.148,Training,tetrabutylphosphonium prolinate,CCCC[P+](CCCC)(CCCC)CCCC.C1CC(NC1)C(=O)[O-],C1(CCCN1)C(=O)[O-].[P+](CCCC)(CCCC)(CCCC)CCCC,26,1,368,26
353.15,0.1,0.148,Training,tetrabutylphosphonium prolinate,CCCC[P+](CCCC)(CCCC)CCCC.C1CC(NC1)C(=O)[O-],C(CC[P+](CCCC)(CCCC)CCCC)C.C1C(NCC1)C([O-])=O,26,1,368,26
353.15,0.1,0.148,Training,tetrabutylphosphonium prolinate,CCCC[P+](CCCC)(CCCC)CCCC.C1CC(NC1)C(=O)[O-],C(C[P+](CCCC)(CCCC)CCCC)CC.O=C(C1NCCC1)[O-],26,1,368,26
313.15,0.1,0.157,Training,tetrabutylphosphonium valinate,CCCC[P+](CCCC)(CCCC)CCCC.CC(C)C(C(=O)[O-])N,CC(C)C(N)C(=O)[O-].CCCC[P+](CCCC)(CCCC)CCCC,27,1,369,27
313.15,0.1,0.157,Training,tetrabutylphosphonium valinate,CCCC[P+](CCCC)(CCCC)CCCC.CC(C)C(C(=O)[O-])N,C(C[P+](CCCC)(CCCC)CCCC)CC.[O-]C(C(N)C(C)C)=O,27,1,369,27
313.15,0.1,0.157,Training,tetrabutylphosphonium valinate,CCCC[P+](CCCC)(CCCC)CCCC.CC(C)C(C(=O)[O-])N,CC(C)C(C([O-])=O)N.CCCC[P+](CCCC)(CCCC)CCCC,27,1,369,27
313.15,0.1,0.157,Training,tetrabutylphosphonium valinate,CCCC[P+](CCCC)(CCCC)CCCC.CC(C)C(C(=O)[O-])N,C(C[P+](CCCC)(CCCC)CCCC)CC.O=C([O-])C(N)C(C)C,27,1,369,27
313.15,0.1,0.157,Training,tetrabutylphosphonium valinate,CCCC[P+](CCCC)(CCCC)CCCC.CC(C)C(C(=O)[O-])N,C([P+](CCCC)(CCCC)CCCC)CCC.[O-]C(C(C(C)C)N)=O,27,1,369,27
313.15,0.1,0.157,Training,tetrabutylphosphonium valinate,CCCC[P+](CCCC)(CCCC)CCCC.CC(C)C(C(=O)[O-])N,C(C(=O)[O-])(C(C)C)N.C(CC)C[P+](CCCC)(CCCC)CCCC,27,1,369,27
313.15,0.1,0.157,Training,tetrabutylphosphonium valinate,CCCC[P+](CCCC)(CCCC)CCCC.CC(C)C(C(=O)[O-])N,C(CC)C[P+](CCCC)(CCCC)CCCC.NC(C(C)C)C(=O)[O-],27,1,369,27
313.15,0.1,0.157,Training,tetrabutylphosphonium valinate,CCCC[P+](CCCC)(CCCC)CCCC.CC(C)C(C(=O)[O-])N,C([P+](CCCC)(CCCC)CCCC)CCC.[O-]C(=O)C(C(C)C)N,27,1,369,27
313.15,0.1,0.157,Training,tetrabutylphosphonium valinate,CCCC[P+](CCCC)(CCCC)CCCC.CC(C)C(C(=O)[O-])N,C(CC[P+](CCCC)(CCCC)CCCC)C.[O-]C(C(C(C)C)N)=O,27,1,369,27
313.15,0.1,0.157,Training,tetrabutylphosphonium valinate,CCCC[P+](CCCC)(CCCC)CCCC.CC(C)C(C(=O)[O-])N,C([P+](CCCC)(CCCC)CCCC)CCC.CC(C)C(C([O-])=O)N,27,1,369,27
323.15,0.1,0.156,Training,tetrabutylphosphonium valinate,CCCC[P+](CCCC)(CCCC)CCCC.CC(C)C(C(=O)[O-])N,CC(C)C(N)C(=O)[O-].CCCC[P+](CCCC)(CCCC)CCCC,27,1,370,27
323.15,0.1,0.156,Training,tetrabutylphosphonium valinate,CCCC[P+](CCCC)(CCCC)CCCC.CC(C)C(C(=O)[O-])N,C(CC)C[P+](CCCC)(CCCC)CCCC.CC(C(N)C(=O)[O-])C,27,1,370,27
323.15,0.1,0.156,Training,tetrabutylphosphonium valinate,CCCC[P+](CCCC)(CCCC)CCCC.CC(C)C(C(=O)[O-])N,C(=O)([O-])C(N)C(C)C.C(CCC)[P+](CCCC)(CCCC)CCCC,27,1,370,27
323.15,0.1,0.156,Training,tetrabutylphosphonium valinate,CCCC[P+](CCCC)(CCCC)CCCC.CC(C)C(C(=O)[O-])N,C(C)(C)C(N)C([O-])=O.[P+](CCCC)(CCCC)(CCCC)CCCC,27,1,370,27
323.15,0.1,0.156,Training,tetrabutylphosphonium valinate,CCCC[P+](CCCC)(CCCC)CCCC.CC(C)C(C(=O)[O-])N,C(=O)(C(N)C(C)C)[O-].CCCC[P+](CCCC)(CCCC)CCCC,27,1,370,27
323.15,0.1,0.156,Training,tetrabutylphosphonium valinate,CCCC[P+](CCCC)(CCCC)CCCC.CC(C)C(C(=O)[O-])N,C(CC)C[P+](CCCC)(CCCC)CCCC.CC(C(N)C([O-])=O)C,27,1,370,27
323.15,0.1,0.156,Training,tetrabutylphosphonium valinate,CCCC[P+](CCCC)(CCCC)CCCC.CC(C)C(C(=O)[O-])N,C(CCC)[P+](CCCC)(CCCC)CCCC.C([O-])(=O)C(C(C)C)N,27,1,370,27
323.15,0.1,0.156,Training,tetrabutylphosphonium valinate,CCCC[P+](CCCC)(CCCC)CCCC.CC(C)C(C(=O)[O-])N,CCCC[P+](CCCC)(CCCC)CCCC.O=C(C(N)C(C)C)[O-],27,1,370,27
323.15,0.1,0.156,Training,tetrabutylphosphonium valinate,CCCC[P+](CCCC)(CCCC)CCCC.CC(C)C(C(=O)[O-])N,C(CC[P+](CCCC)(CCCC)CCCC)C.O=C([O-])C(C(C)C)N,27,1,370,27
323.15,0.1,0.156,Training,tetrabutylphosphonium valinate,CCCC[P+](CCCC)(CCCC)CCCC.CC(C)C(C(=O)[O-])N,C(CC)C[P+](CCCC)(CCCC)CCCC.CC(C)C(N)C(=O)[O-],27,1,370,27
333.15,0.1,0.155,Training,tetrabutylphosphonium valinate,CCCC[P+](CCCC)(CCCC)CCCC.CC(C)C(C(=O)[O-])N,CC(C)C(N)C(=O)[O-].CCCC[P+](CCCC)(CCCC)CCCC,27,1,371,27
333.15,0.1,0.155,Training,tetrabutylphosphonium valinate,CCCC[P+](CCCC)(CCCC)CCCC.CC(C)C(C(=O)[O-])N,C([P+](CCCC)(CCCC)CCCC)CCC.CC(C)C(C(=O)[O-])N,27,1,371,27
333.15,0.1,0.155,Training,tetrabutylphosphonium valinate,CCCC[P+](CCCC)(CCCC)CCCC.CC(C)C(C(=O)[O-])N,CCCC[P+](CCCC)(CCCC)CCCC.O=C(C(N)C(C)C)[O-],27,1,371,27
333.15,0.1,0.155,Training,tetrabutylphosphonium valinate,CCCC[P+](CCCC)(CCCC)CCCC.CC(C)C(C(=O)[O-])N,C(CC[P+](CCCC)(CCCC)CCCC)C.C([O-])(=O)C(C(C)C)N,27,1,371,27
333.15,0.1,0.155,Training,tetrabutylphosphonium valinate,CCCC[P+](CCCC)(CCCC)CCCC.CC(C)C(C(=O)[O-])N,C(CCC)[P+](CCCC)(CCCC)CCCC.NC(C([O-])=O)C(C)C,27,1,371,27
333.15,0.1,0.155,Training,tetrabutylphosphonium valinate,CCCC[P+](CCCC)(CCCC)CCCC.CC(C)C(C(=O)[O-])N,C(C(C)C)(C(=O)[O-])N.CCCC[P+](CCCC)(CCCC)CCCC,27,1,371,27
333.15,0.1,0.155,Training,tetrabutylphosphonium valinate,CCCC[P+](CCCC)(CCCC)CCCC.CC(C)C(C(=O)[O-])N,C(CC[P+](CCCC)(CCCC)CCCC)C.CC(C)C(C(=O)[O-])N,27,1,371,27
333.15,0.1,0.155,Training,tetrabutylphosphonium valinate,CCCC[P+](CCCC)(CCCC)CCCC.CC(C)C(C(=O)[O-])N,CC(C(N)C([O-])=O)C.CCCC[P+](CCCC)(CCCC)CCCC,27,1,371,27
333.15,0.1,0.155,Training,tetrabutylphosphonium valinate,CCCC[P+](CCCC)(CCCC)CCCC.CC(C)C(C(=O)[O-])N,C(C[P+](CCCC)(CCCC)CCCC)CC.O=C(C(C(C)C)N)[O-],27,1,371,27
333.15,0.1,0.155,Training,tetrabutylphosphonium valinate,CCCC[P+](CCCC)(CCCC)CCCC.CC(C)C(C(=O)[O-])N,CCCC[P+](CCCC)(CCCC)CCCC.[O-]C(C(N)C(C)C)=O,27,1,371,27
343.15,0.1,0.154,Training,tetrabutylphosphonium valinate,CCCC[P+](CCCC)(CCCC)CCCC.CC(C)C(C(=O)[O-])N,CC(C)C(N)C(=O)[O-].CCCC[P+](CCCC)(CCCC)CCCC,27,1,372,27
343.15,0.1,0.154,Training,tetrabutylphosphonium valinate,CCCC[P+](CCCC)(CCCC)CCCC.CC(C)C(C(=O)[O-])N,C(C)(C(N)C([O-])=O)C.C(CCC)[P+](CCCC)(CCCC)CCCC,27,1,372,27
343.15,0.1,0.154,Training,tetrabutylphosphonium valinate,CCCC[P+](CCCC)(CCCC)CCCC.CC(C)C(C(=O)[O-])N,C(C(C(C)C)N)(=O)[O-].C(CC)C[P+](CCCC)(CCCC)CCCC,27,1,372,27
343.15,0.1,0.154,Training,tetrabutylphosphonium valinate,CCCC[P+](CCCC)(CCCC)CCCC.CC(C)C(C(=O)[O-])N,C(C(C)C)(C([O-])=O)N.C(CC)C[P+](CCCC)(CCCC)CCCC,27,1,372,27
343.15,0.1,0.154,Training,tetrabutylphosphonium valinate,CCCC[P+](CCCC)(CCCC)CCCC.CC(C)C(C(=O)[O-])N,C(C[P+](CCCC)(CCCC)CCCC)CC.CC(C(C(=O)[O-])N)C,27,1,372,27
343.15,0.1,0.154,Training,tetrabutylphosphonium valinate,CCCC[P+](CCCC)(CCCC)CCCC.CC(C)C(C(=O)[O-])N,C(N)(C(C)C)C(=O)[O-].CCCC[P+](CCCC)(CCCC)CCCC,27,1,372,27
343.15,0.1,0.154,Training,tetrabutylphosphonium valinate,CCCC[P+](CCCC)(CCCC)CCCC.CC(C)C(C(=O)[O-])N,CC(C(C(=O)[O-])N)C.CCCC[P+](CCCC)(CCCC)CCCC,27,1,372,27
343.15,0.1,0.154,Training,tetrabutylphosphonium valinate,CCCC[P+](CCCC)(CCCC)CCCC.CC(C)C(C(=O)[O-])N,NC(C(C)C)C([O-])=O.[P+](CCCC)(CCCC)(CCCC)CCCC,27,1,372,27
343.15,0.1,0.154,Training,tetrabutylphosphonium valinate,CCCC[P+](CCCC)(CCCC)CCCC.CC(C)C(C(=O)[O-])N,C(CC)C[P+](CCCC)(CCCC)CCCC.C([O-])(=O)C(C(C)C)N,27,1,372,27
343.15,0.1,0.154,Training,tetrabutylphosphonium valinate,CCCC[P+](CCCC)(CCCC)CCCC.CC(C)C(C(=O)[O-])N,C([O-])(C(N)C(C)C)=O.CCCC[P+](CCCC)(CCCC)CCCC,27,1,372,27
353.15,0.1,0.153,Training,tetrabutylphosphonium valinate,CCCC[P+](CCCC)(CCCC)CCCC.CC(C)C(C(=O)[O-])N,CC(C)C(N)C(=O)[O-].CCCC[P+](CCCC)(CCCC)CCCC,27,1,373,27
353.15,0.1,0.153,Training,tetrabutylphosphonium valinate,CCCC[P+](CCCC)(CCCC)CCCC.CC(C)C(C(=O)[O-])N,C(C(C)C)(C(=O)[O-])N.C(C)CC[P+](CCCC)(CCCC)CCCC,27,1,373,27
353.15,0.1,0.153,Training,tetrabutylphosphonium valinate,CCCC[P+](CCCC)(CCCC)CCCC.CC(C)C(C(=O)[O-])N,C(CCC)[P+](CCCC)(CCCC)CCCC.NC(C(C)C)C(=O)[O-],27,1,373,27
353.15,0.1,0.153,Training,tetrabutylphosphonium valinate,CCCC[P+](CCCC)(CCCC)CCCC.CC(C)C(C(=O)[O-])N,CC(C)C(C([O-])=O)N.CCCC[P+](CCCC)(CCCC)CCCC,27,1,373,27
353.15,0.1,0.153,Training,tetrabutylphosphonium valinate,CCCC[P+](CCCC)(CCCC)CCCC.CC(C)C(C(=O)[O-])N,C(C[P+](CCCC)(CCCC)CCCC)CC.CC(C(N)C([O-])=O)C,27,1,373,27
353.15,0.1,0.153,Training,tetrabutylphosphonium valinate,CCCC[P+](CCCC)(CCCC)CCCC.CC(C)C(C(=O)[O-])N,C(C(C)C)(N)C([O-])=O.CCCC[P+](CCCC)(CCCC)CCCC,27,1,373,27
353.15,0.1,0.153,Training,tetrabutylphosphonium valinate,CCCC[P+](CCCC)(CCCC)CCCC.CC(C)C(C(=O)[O-])N,C(C(C([O-])=O)N)(C)C.C([P+](CCCC)(CCCC)CCCC)CCC,27,1,373,27
353.15,0.1,0.153,Training,tetrabutylphosphonium valinate,CCCC[P+](CCCC)(CCCC)CCCC.CC(C)C(C(=O)[O-])N,C(CCC)[P+](CCCC)(CCCC)CCCC.CC(C(C(=O)[O-])N)C,27,1,373,27
353.15,0.1,0.153,Training,tetrabutylphosphonium valinate,CCCC[P+](CCCC)(CCCC)CCCC.CC(C)C(C(=O)[O-])N,C(C)(C)C(N)C(=O)[O-].C(C[P+](CCCC)(CCCC)CCCC)CC,27,1,373,27
353.15,0.1,0.153,Training,tetrabutylphosphonium valinate,CCCC[P+](CCCC)(CCCC)CCCC.CC(C)C(C(=O)[O-])N,CC(C(N)C(=O)[O-])C.[P+](CCCC)(CCCC)(CCCC)CCCC,27,1,373,27
298.15,0.1,0.152,Testing,tetrabutylphosphonium cysteinate,CCCC[P+](CCCC)(CCCC)CCCC.C([C@@H](C(=O)[O-])N)S,CCCC[P+](CCCC)(CCCC)CCCC.N[C@@H](CS)C(=O)[O-],28,1,374,28
298.15,0.1,0.152,Testing,tetrabutylphosphonium cysteinate,CCCC[P+](CCCC)(CCCC)CCCC.C([C@@H](C(=O)[O-])N)S,C(C[P+](CCCC)(CCCC)CCCC)CC.[C@@H](CS)(N)C([O-])=O,28,1,374,28
298.15,0.1,0.152,Testing,tetrabutylphosphonium cysteinate,CCCC[P+](CCCC)(CCCC)CCCC.C([C@@H](C(=O)[O-])N)S,C([P+](CCCC)(CCCC)CCCC)CCC.SC[C@H](N)C([O-])=O,28,1,374,28
298.15,0.1,0.152,Testing,tetrabutylphosphonium cysteinate,CCCC[P+](CCCC)(CCCC)CCCC.C([C@@H](C(=O)[O-])N)S,CCCC[P+](CCCC)(CCCC)CCCC.SC[C@@H](C([O-])=O)N,28,1,374,28
298.15,0.1,0.152,Testing,tetrabutylphosphonium cysteinate,CCCC[P+](CCCC)(CCCC)CCCC.C([C@@H](C(=O)[O-])N)S,C([C@@H](N)CS)([O-])=O.CCCC[P+](CCCC)(CCCC)CCCC,28,1,374,28
298.15,0.1,0.152,Testing,tetrabutylphosphonium cysteinate,CCCC[P+](CCCC)(CCCC)CCCC.C([C@@H](C(=O)[O-])N)S,C(CCC)[P+](CCCC)(CCCC)CCCC.[O-]C(=O)[C@@H](N)CS,28,1,374,28
298.15,0.1,0.152,Testing,tetrabutylphosphonium cysteinate,CCCC[P+](CCCC)(CCCC)CCCC.C([C@@H](C(=O)[O-])N)S,C([O-])(=O)[C@@H](N)CS.CCCC[P+](CCCC)(CCCC)CCCC,28,1,374,28
298.15,0.1,0.152,Testing,tetrabutylphosphonium cysteinate,CCCC[P+](CCCC)(CCCC)CCCC.C([C@@H](C(=O)[O-])N)S,C([P+](CCCC)(CCCC)CCCC)CCC.N[C@H](C(=O)[O-])CS,28,1,374,28
298.15,0.1,0.152,Testing,tetrabutylphosphonium cysteinate,CCCC[P+](CCCC)(CCCC)CCCC.C([C@@H](C(=O)[O-])N)S,C([P+](CCCC)(CCCC)CCCC)CCC.N[C@@H](CS)C([O-])=O,28,1,374,28
298.15,0.1,0.152,Testing,tetrabutylphosphonium cysteinate,CCCC[P+](CCCC)(CCCC)CCCC.C([C@@H](C(=O)[O-])N)S,CCCC[P+](CCCC)(CCCC)CCCC.SC[C@H](N)C(=O)[O-],28,1,374,28
303.15,0.1,0.151,Training,tetrabutylphosphonium cysteinate,CCCC[P+](CCCC)(CCCC)CCCC.C([C@@H](C(=O)[O-])N)S,CCCC[P+](CCCC)(CCCC)CCCC.N[C@@H](CS)C(=O)[O-],28,1,375,28
303.15,0.1,0.151,Training,tetrabutylphosphonium cysteinate,CCCC[P+](CCCC)(CCCC)CCCC.C([C@@H](C(=O)[O-])N)S,C(CC)C[P+](CCCC)(CCCC)CCCC.O=C([O-])[C@H](CS)N,28,1,375,28
303.15,0.1,0.151,Training,tetrabutylphosphonium cysteinate,CCCC[P+](CCCC)(CCCC)CCCC.C([C@@H](C(=O)[O-])N)S,C(CC)C[P+](CCCC)(CCCC)CCCC.C([C@@H](C([O-])=O)N)S,28,1,375,28
303.15,0.1,0.151,Training,tetrabutylphosphonium cysteinate,CCCC[P+](CCCC)(CCCC)CCCC.C([C@@H](C(=O)[O-])N)S,C(CC)C[P+](CCCC)(CCCC)CCCC.[C@@H](N)(C(=O)[O-])CS,28,1,375,28
303.15,0.1,0.151,Training,tetrabutylphosphonium cysteinate,CCCC[P+](CCCC)(CCCC)CCCC.C([C@@H](C(=O)[O-])N)S,C([C@H](CS)N)([O-])=O.[P+](CCCC)(CCCC)(CCCC)CCCC,28,1,375,28
303.15,0.1,0.151,Training,tetrabutylphosphonium cysteinate,CCCC[P+](CCCC)(CCCC)CCCC.C([C@@H](C(=O)[O-])N)S,C([P+](CCCC)(CCCC)CCCC)CCC.[C@H](CS)(C([O-])=O)N,28,1,375,28
303.15,0.1,0.151,Training,tetrabutylphosphonium cysteinate,CCCC[P+](CCCC)(CCCC)CCCC.C([C@@H](C(=O)[O-])N)S,C(CC[P+](CCCC)(CCCC)CCCC)C.[O-]C([C@@H](N)CS)=O,28,1,375,28
303.15,0.1,0.151,Training,tetrabutylphosphonium cysteinate,CCCC[P+](CCCC)(CCCC)CCCC.C([C@@H](C(=O)[O-])N)S,C(CCC)[P+](CCCC)(CCCC)CCCC.[O-]C([C@H](CS)N)=O,28,1,375,28
303.15,0.1,0.151,Training,tetrabutylphosphonium cysteinate,CCCC[P+](CCCC)(CCCC)CCCC.C([C@@H](C(=O)[O-])N)S,C(CCC)[P+](CCCC)(CCCC)CCCC.[C@H](C([O-])=O)(N)CS,28,1,375,28
303.15,0.1,0.151,Training,tetrabutylphosphonium cysteinate,CCCC[P+](CCCC)(CCCC)CCCC.C([C@@H](C(=O)[O-])N)S,C(C)CC[P+](CCCC)(CCCC)CCCC.O=C([O-])[C@H](CS)N,28,1,375,28
313.15,0.1,0.15,Testing,tetrabutylphosphonium cysteinate,CCCC[P+](CCCC)(CCCC)CCCC.C([C@@H](C(=O)[O-])N)S,CCCC[P+](CCCC)(CCCC)CCCC.N[C@@H](CS)C(=O)[O-],28,1,376,28
313.15,0.1,0.15,Testing,tetrabutylphosphonium cysteinate,CCCC[P+](CCCC)(CCCC)CCCC.C([C@@H](C(=O)[O-])N)S,C(CC)C[P+](CCCC)(CCCC)CCCC.O=C([O-])[C@@H](N)CS,28,1,376,28
313.15,0.1,0.15,Testing,tetrabutylphosphonium cysteinate,CCCC[P+](CCCC)(CCCC)CCCC.C([C@@H](C(=O)[O-])N)S,C([P+](CCCC)(CCCC)CCCC)CCC.N[C@@H](CS)C([O-])=O,28,1,376,28
313.15,0.1,0.15,Testing,tetrabutylphosphonium cysteinate,CCCC[P+](CCCC)(CCCC)CCCC.C([C@@H](C(=O)[O-])N)S,C([P+](CCCC)(CCCC)CCCC)CCC.SC[C@@H](C(=O)[O-])N,28,1,376,28
313.15,0.1,0.15,Testing,tetrabutylphosphonium cysteinate,CCCC[P+](CCCC)(CCCC)CCCC.C([C@@H](C(=O)[O-])N)S,C(CC[P+](CCCC)(CCCC)CCCC)C.C([C@@H](C([O-])=O)N)S,28,1,376,28
313.15,0.1,0.15,Testing,tetrabutylphosphonium cysteinate,CCCC[P+](CCCC)(CCCC)CCCC.C([C@@H](C(=O)[O-])N)S,C([P+](CCCC)(CCCC)CCCC)CCC.[O-]C([C@H](CS)N)=O,28,1,376,28
313.15,0.1,0.15,Testing,tetrabutylphosphonium cysteinate,CCCC[P+](CCCC)(CCCC)CCCC.C([C@@H](C(=O)[O-])N)S,C(C[P+](CCCC)(CCCC)CCCC)CC.SC[C@H](N)C([O-])=O,28,1,376,28
313.15,0.1,0.15,Testing,tetrabutylphosphonium cysteinate,CCCC[P+](CCCC)(CCCC)CCCC.C([C@@H](C(=O)[O-])N)S,C(CC)C[P+](CCCC)(CCCC)CCCC.[O-]C(=O)[C@H](CS)N,28,1,376,28
313.15,0.1,0.15,Testing,tetrabutylphosphonium cysteinate,CCCC[P+](CCCC)(CCCC)CCCC.C([C@@H](C(=O)[O-])N)S,C(CC)C[P+](CCCC)(CCCC)CCCC.C(S)[C@H](N)C(=O)[O-],28,1,376,28
313.15,0.1,0.15,Testing,tetrabutylphosphonium cysteinate,CCCC[P+](CCCC)(CCCC)CCCC.C([C@@H](C(=O)[O-])N)S,C([C@@H](C([O-])=O)N)S.CCCC[P+](CCCC)(CCCC)CCCC,28,1,376,28
323.15,0.1,0.149,Training,tetrabutylphosphonium cysteinate,CCCC[P+](CCCC)(CCCC)CCCC.C([C@@H](C(=O)[O-])N)S,CCCC[P+](CCCC)(CCCC)CCCC.N[C@@H](CS)C(=O)[O-],28,1,377,28
323.15,0.1,0.149,Training,tetrabutylphosphonium cysteinate,CCCC[P+](CCCC)(CCCC)CCCC.C([C@@H](C(=O)[O-])N)S,C(CCC)[P+](CCCC)(CCCC)CCCC.N[C@@H](CS)C([O-])=O,28,1,377,28
323.15,0.1,0.149,Training,tetrabutylphosphonium cysteinate,CCCC[P+](CCCC)(CCCC)CCCC.C([C@@H](C(=O)[O-])N)S,C(C)CC[P+](CCCC)(CCCC)CCCC.N[C@H](C(=O)[O-])CS,28,1,377,28
323.15,0.1,0.149,Training,tetrabutylphosphonium cysteinate,CCCC[P+](CCCC)(CCCC)CCCC.C([C@@H](C(=O)[O-])N)S,CCCC[P+](CCCC)(CCCC)CCCC.N[C@H](C([O-])=O)CS,28,1,377,28
323.15,0.1,0.149,Training,tetrabutylphosphonium cysteinate,CCCC[P+](CCCC)(CCCC)CCCC.C([C@@H](C(=O)[O-])N)S,C([C@@H](C([O-])=O)N)S.CCCC[P+](CCCC)(CCCC)CCCC,28,1,377,28
323.15,0.1,0.149,Training,tetrabutylphosphonium cysteinate,CCCC[P+](CCCC)(CCCC)CCCC.C([C@@H](C(=O)[O-])N)S,C(CCC)[P+](CCCC)(CCCC)CCCC.N[C@@H](CS)C(=O)[O-],28,1,377,28
323.15,0.1,0.149,Training,tetrabutylphosphonium cysteinate,CCCC[P+](CCCC)(CCCC)CCCC.C([C@@H](C(=O)[O-])N)S,C(C)CC[P+](CCCC)(CCCC)CCCC.[C@@H](CS)(N)C([O-])=O,28,1,377,28
323.15,0.1,0.149,Training,tetrabutylphosphonium cysteinate,CCCC[P+](CCCC)(CCCC)CCCC.C([C@@H](C(=O)[O-])N)S,CCCC[P+](CCCC)(CCCC)CCCC.[O-]C([C@H](CS)N)=O,28,1,377,28
323.15,0.1,0.149,Training,tetrabutylphosphonium cysteinate,CCCC[P+](CCCC)(CCCC)CCCC.C([C@@H](C(=O)[O-])N)S,C([O-])([C@H](CS)N)=O.CCCC[P+](CCCC)(CCCC)CCCC,28,1,377,28
333.15,0.1,0.148,Training,tetrabutylphosphonium cysteinate,CCCC[P+](CCCC)(CCCC)CCCC.C([C@@H](C(=O)[O-])N)S,CCCC[P+](CCCC)(CCCC)CCCC.N[C@@H](CS)C(=O)[O-],28,1,378,28
333.15,0.1,0.148,Training,tetrabutylphosphonium cysteinate,CCCC[P+](CCCC)(CCCC)CCCC.C([C@@H](C(=O)[O-])N)S,CCCC[P+](CCCC)(CCCC)CCCC.O=C([C@@H](N)CS)[O-],28,1,378,28
333.15,0.1,0.148,Training,tetrabutylphosphonium cysteinate,CCCC[P+](CCCC)(CCCC)CCCC.C([C@@H](C(=O)[O-])N)S,C(C[P+](CCCC)(CCCC)CCCC)CC.SC[C@@H](C(=O)[O-])N,28,1,378,28
333.15,0.1,0.148,Training,tetrabutylphosphonium cysteinate,CCCC[P+](CCCC)(CCCC)CCCC.C([C@@H](C(=O)[O-])N)S,C([C@@H](C([O-])=O)N)S.CCCC[P+](CCCC)(CCCC)CCCC,28,1,378,28
333.15,0.1,0.148,Training,tetrabutylphosphonium cysteinate,CCCC[P+](CCCC)(CCCC)CCCC.C([C@@H](C(=O)[O-])N)S,C(C)CC[P+](CCCC)(CCCC)CCCC.SC[C@H](N)C([O-])=O,28,1,378,28
333.15,0.1,0.148,Training,tetrabutylphosphonium cysteinate,CCCC[P+](CCCC)(CCCC)CCCC.C([C@@H](C(=O)[O-])N)S,[O-]C([C@@H](N)CS)=O.[P+](CCCC)(CCCC)(CCCC)CCCC,28,1,378,28
333.15,0.1,0.148,Training,tetrabutylphosphonium cysteinate,CCCC[P+](CCCC)(CCCC)CCCC.C([C@@H](C(=O)[O-])N)S,C(C)CC[P+](CCCC)(CCCC)CCCC.[C@H](CS)(C(=O)[O-])N,28,1,378,28
333.15,0.1,0.148,Training,tetrabutylphosphonium cysteinate,CCCC[P+](CCCC)(CCCC)CCCC.C([C@@H](C(=O)[O-])N)S,C(CCC)[P+](CCCC)(CCCC)CCCC.[C@@H](N)(C([O-])=O)CS,28,1,378,28
333.15,0.1,0.148,Training,tetrabutylphosphonium cysteinate,CCCC[P+](CCCC)(CCCC)CCCC.C([C@@H](C(=O)[O-])N)S,C(CCC)[P+](CCCC)(CCCC)CCCC.[C@@H](C([O-])=O)(CS)N,28,1,378,28
333.15,0.1,0.148,Training,tetrabutylphosphonium cysteinate,CCCC[P+](CCCC)(CCCC)CCCC.C([C@@H](C(=O)[O-])N)S,C(C)CC[P+](CCCC)(CCCC)CCCC.C([C@@H](C(=O)[O-])N)S,28,1,378,28
343.15,0.1,0.147,Training,tetrabutylphosphonium cysteinate,CCCC[P+](CCCC)(CCCC)CCCC.C([C@@H](C(=O)[O-])N)S,CCCC[P+](CCCC)(CCCC)CCCC.N[C@@H](CS)C(=O)[O-],28,1,379,28
343.15,0.1,0.147,Training,tetrabutylphosphonium cysteinate,CCCC[P+](CCCC)(CCCC)CCCC.C([C@@H](C(=O)[O-])N)S,C(S)[C@@H](C(=O)[O-])N.CCCC[P+](CCCC)(CCCC)CCCC,28,1,379,28
343.15,0.1,0.147,Training,tetrabutylphosphonium cysteinate,CCCC[P+](CCCC)(CCCC)CCCC.C([C@@H](C(=O)[O-])N)S,C([C@@H](C(=O)[O-])N)S.[P+](CCCC)(CCCC)(CCCC)CCCC,28,1,379,28
343.15,0.1,0.147,Training,tetrabutylphosphonium cysteinate,CCCC[P+](CCCC)(CCCC)CCCC.C([C@@H](C(=O)[O-])N)S,C(CCC)[P+](CCCC)(CCCC)CCCC.O=C([C@@H](N)CS)[O-],28,1,379,28
343.15,0.1,0.147,Training,tetrabutylphosphonium cysteinate,CCCC[P+](CCCC)(CCCC)CCCC.C([C@@H](C(=O)[O-])N)S,C([O-])(=O)[C@H](CS)N.C([P+](CCCC)(CCCC)CCCC)CCC,28,1,379,28
343.15,0.1,0.147,Training,tetrabutylphosphonium cysteinate,CCCC[P+](CCCC)(CCCC)CCCC.C([C@@H](C(=O)[O-])N)S,CCCC[P+](CCCC)(CCCC)CCCC.N[C@@H](CS)C([O-])=O,28,1,379,28
343.15,0.1,0.147,Training,tetrabutylphosphonium cysteinate,CCCC[P+](CCCC)(CCCC)CCCC.C([C@@H](C(=O)[O-])N)S,C(CC)C[P+](CCCC)(CCCC)CCCC.[O-]C([C@@H](N)CS)=O,28,1,379,28
343.15,0.1,0.147,Training,tetrabutylphosphonium cysteinate,CCCC[P+](CCCC)(CCCC)CCCC.C([C@@H](C(=O)[O-])N)S,C(C)CC[P+](CCCC)(CCCC)CCCC.[O-]C([C@@H](N)CS)=O,28,1,379,28
343.15,0.1,0.147,Training,tetrabutylphosphonium cysteinate,CCCC[P+](CCCC)(CCCC)CCCC.C([C@@H](C(=O)[O-])N)S,C(C)CC[P+](CCCC)(CCCC)CCCC.C([O-])(=O)[C@@H](N)CS,28,1,379,28
343.15,0.1,0.147,Training,tetrabutylphosphonium cysteinate,CCCC[P+](CCCC)(CCCC)CCCC.C([C@@H](C(=O)[O-])N)S,C([C@H](N)C(=O)[O-])S.C([P+](CCCC)(CCCC)CCCC)CCC,28,1,379,28
353.15,0.1,0.1412,Testing,tetrabutylphosphonium cysteinate,CCCC[P+](CCCC)(CCCC)CCCC.C([C@@H](C(=O)[O-])N)S,CCCC[P+](CCCC)(CCCC)CCCC.N[C@@H](CS)C(=O)[O-],28,1,380,28
353.15,0.1,0.1412,Testing,tetrabutylphosphonium cysteinate,CCCC[P+](CCCC)(CCCC)CCCC.C([C@@H](C(=O)[O-])N)S,C(C)CC[P+](CCCC)(CCCC)CCCC.N[C@@H](CS)C(=O)[O-],28,1,380,28
353.15,0.1,0.1412,Testing,tetrabutylphosphonium cysteinate,CCCC[P+](CCCC)(CCCC)CCCC.C([C@@H](C(=O)[O-])N)S,CCCC[P+](CCCC)(CCCC)CCCC.[C@@H](N)(C([O-])=O)CS,28,1,380,28
353.15,0.1,0.1412,Testing,tetrabutylphosphonium cysteinate,CCCC[P+](CCCC)(CCCC)CCCC.C([C@@H](C(=O)[O-])N)S,C(CC[P+](CCCC)(CCCC)CCCC)C.C([C@@H](N)CS)(=O)[O-],28,1,380,28
353.15,0.1,0.1412,Testing,tetrabutylphosphonium cysteinate,CCCC[P+](CCCC)(CCCC)CCCC.C([C@@H](C(=O)[O-])N)S,C(CC)C[P+](CCCC)(CCCC)CCCC.N[C@H](C([O-])=O)CS,28,1,380,28
353.15,0.1,0.1412,Testing,tetrabutylphosphonium cysteinate,CCCC[P+](CCCC)(CCCC)CCCC.C([C@@H](C(=O)[O-])N)S,C(CC)C[P+](CCCC)(CCCC)CCCC.[O-]C([C@@H](N)CS)=O,28,1,380,28