T/K,P/MPa,TC/W m-1 K-1,Data type,Name,SMILES,Normalized SMILES,index,P/bar,RANDOM,IL
283.15,30.0,0.1893,Training,1-butyl-3-methylimidazolium dicyanamide,CCCCN1C=C[N+](=C1)C.C(=[N-])=NC#N,C(n1cc[n+](c1)C)CCC.N(C#N)=C=[N-],8,300,193,8
283.15,30.0,0.1893,Training,1-butyl-3-methylimidazolium dicyanamide,CCCCN1C=C[N+](=C1)C.C(=[N-])=NC#N,C(N=C=[N-])#N.C[n+]1ccn(c1)CCCC,8,300,193,8
283.15,30.0,0.1893,Training,1-butyl-3-methylimidazolium dicyanamide,CCCCN1C=C[N+](=C1)C.C(=[N-])=NC#N,N#CN=C=[N-].[n+]1(C)ccn(CCCC)c1,8,300,193,8
283.15,30.0,0.1893,Training,1-butyl-3-methylimidazolium dicyanamide,CCCCN1C=C[N+](=C1)C.C(=[N-])=NC#N,CCCCn1cc[n+](c1)C.N#CN=C=[N-],8,300,193,8
283.15,30.0,0.1893,Training,1-butyl-3-methylimidazolium dicyanamide,CCCCN1C=C[N+](=C1)C.C(=[N-])=NC#N,C(=NC#N)=[N-].CCCCn1cc[n+](c1)C,8,300,193,8
283.15,30.0,0.1893,Training,1-butyl-3-methylimidazolium dicyanamide,CCCCN1C=C[N+](=C1)C.C(=[N-])=NC#N,CCCCn1c[n+](cc1)C.[N-]=C=NC#N,8,300,193,8
283.15,30.0,0.1893,Training,1-butyl-3-methylimidazolium dicyanamide,CCCCN1C=C[N+](=C1)C.C(=[N-])=NC#N,C(C)CCn1cc[n+](C)c1.[N-]=C=NC#N,8,300,193,8
283.15,30.0,0.1893,Training,1-butyl-3-methylimidazolium dicyanamide,CCCCN1C=C[N+](=C1)C.C(=[N-])=NC#N,N#CN=C=[N-].n1(c[n+](cc1)C)CCCC,8,300,193,8
283.15,40.0,0.1928,Training,1-butyl-3-methylimidazolium dicyanamide,CCCCN1C=C[N+](=C1)C.C(=[N-])=NC#N,CCCCn1cc[n+](C)c1.N#CN=C=[N-],8,400,194,8
283.15,40.0,0.1928,Training,1-butyl-3-methylimidazolium dicyanamide,CCCCN1C=C[N+](=C1)C.C(=[N-])=NC#N,C(=[N-])=NC#N.C[n+]1ccn(c1)CCCC,8,400,194,8
283.15,40.0,0.1928,Training,1-butyl-3-methylimidazolium dicyanamide,CCCCN1C=C[N+](=C1)C.C(=[N-])=NC#N,C(=[N-])=NC#N.c1[n+](C)cn(CCCC)c1,8,400,194,8
283.15,40.0,0.1928,Training,1-butyl-3-methylimidazolium dicyanamide,CCCCN1C=C[N+](=C1)C.C(=[N-])=NC#N,N#CN=C=[N-].c1cn(CCCC)c[n+]1C,8,400,194,8
283.15,40.0,0.1928,Training,1-butyl-3-methylimidazolium dicyanamide,CCCCN1C=C[N+](=C1)C.C(=[N-])=NC#N,C(=[N-])=NC#N.C(C)CCn1cc[n+](c1)C,8,400,194,8
283.15,40.0,0.1928,Training,1-butyl-3-methylimidazolium dicyanamide,CCCCN1C=C[N+](=C1)C.C(=[N-])=NC#N,N#CN=C=[N-].c1[n+](ccn1CCCC)C,8,400,194,8
283.15,40.0,0.1928,Training,1-butyl-3-methylimidazolium dicyanamide,CCCCN1C=C[N+](=C1)C.C(=[N-])=NC#N,C(=NC#N)=[N-].c1[n+](ccn1CCCC)C,8,400,194,8
283.15,40.0,0.1928,Training,1-butyl-3-methylimidazolium dicyanamide,CCCCN1C=C[N+](=C1)C.C(=[N-])=NC#N,[N-]=C=NC#N.c1n(cc[n+]1C)CCCC,8,400,194,8
283.15,40.0,0.1928,Training,1-butyl-3-methylimidazolium dicyanamide,CCCCN1C=C[N+](=C1)C.C(=[N-])=NC#N,C(=[N-])=NC#N.C(n1c[n+](C)cc1)CCC,8,400,194,8
283.15,40.0,0.1928,Training,1-butyl-3-methylimidazolium dicyanamide,CCCCN1C=C[N+](=C1)C.C(=[N-])=NC#N,C(#N)N=C=[N-].c1n(CCCC)c[n+](c1)C,8,400,194,8
283.15,50.0,0.194,Training,1-butyl-3-methylimidazolium dicyanamide,CCCCN1C=C[N+](=C1)C.C(=[N-])=NC#N,CCCCn1cc[n+](C)c1.N#CN=C=[N-],8,500,195,8
283.15,50.0,0.194,Training,1-butyl-3-methylimidazolium dicyanamide,CCCCN1C=C[N+](=C1)C.C(=[N-])=NC#N,C(=[N-])=NC#N.c1cn(c[n+]1C)CCCC,8,500,195,8
283.15,50.0,0.194,Training,1-butyl-3-methylimidazolium dicyanamide,CCCCN1C=C[N+](=C1)C.C(=[N-])=NC#N,N#CN=C=[N-].c1n(c[n+](c1)C)CCCC,8,500,195,8
283.15,50.0,0.194,Training,1-butyl-3-methylimidazolium dicyanamide,CCCCN1C=C[N+](=C1)C.C(=[N-])=NC#N,N(=C=[N-])C#N.[n+]1(cn(CCCC)cc1)C,8,500,195,8
283.15,50.0,0.194,Training,1-butyl-3-methylimidazolium dicyanamide,CCCCN1C=C[N+](=C1)C.C(=[N-])=NC#N,C(=[N-])=NC#N.c1n(CCCC)c[n+](c1)C,8,500,195,8
283.15,50.0,0.194,Training,1-butyl-3-methylimidazolium dicyanamide,CCCCN1C=C[N+](=C1)C.C(=[N-])=NC#N,C(C)CCn1cc[n+](C)c1.N#CN=C=[N-],8,500,195,8
283.15,50.0,0.194,Training,1-butyl-3-methylimidazolium dicyanamide,CCCCN1C=C[N+](=C1)C.C(=[N-])=NC#N,C(#N)N=C=[N-].C(CC)Cn1cc[n+](C)c1,8,500,195,8
283.15,50.0,0.194,Training,1-butyl-3-methylimidazolium dicyanamide,CCCCN1C=C[N+](=C1)C.C(=[N-])=NC#N,C(=[N-])=NC#N.[n+]1(C)ccn(c1)CCCC,8,500,195,8
283.15,50.0,0.194,Training,1-butyl-3-methylimidazolium dicyanamide,CCCCN1C=C[N+](=C1)C.C(=[N-])=NC#N,C(=[N-])=NC#N.C(CCC)n1c[n+](C)cc1,8,500,195,8
283.15,50.0,0.194,Training,1-butyl-3-methylimidazolium dicyanamide,CCCCN1C=C[N+](=C1)C.C(=[N-])=NC#N,C(#N)N=C=[N-].c1n(c[n+](C)c1)CCCC,8,500,195,8
283.15,60.0,0.1965,Training,1-butyl-3-methylimidazolium dicyanamide,CCCCN1C=C[N+](=C1)C.C(=[N-])=NC#N,CCCCn1cc[n+](C)c1.N#CN=C=[N-],8,600,196,8
283.15,60.0,0.1965,Training,1-butyl-3-methylimidazolium dicyanamide,CCCCN1C=C[N+](=C1)C.C(=[N-])=NC#N,N(C#N)=C=[N-].c1[n+](cn(CCCC)c1)C,8,600,196,8
283.15,60.0,0.1965,Training,1-butyl-3-methylimidazolium dicyanamide,CCCCN1C=C[N+](=C1)C.C(=[N-])=NC#N,C(CCC)n1c[n+](C)cc1.[N-]=C=NC#N,8,600,196,8
283.15,60.0,0.1965,Training,1-butyl-3-methylimidazolium dicyanamide,CCCCN1C=C[N+](=C1)C.C(=[N-])=NC#N,C(=[N-])=NC#N.C[n+]1ccn(CCCC)c1,8,600,196,8
283.15,60.0,0.1965,Training,1-butyl-3-methylimidazolium dicyanamide,CCCCN1C=C[N+](=C1)C.C(=[N-])=NC#N,C(N=C=[N-])#N.c1cn(CCCC)c[n+]1C,8,600,196,8
283.15,60.0,0.1965,Training,1-butyl-3-methylimidazolium dicyanamide,CCCCN1C=C[N+](=C1)C.C(=[N-])=NC#N,[N-]=C=NC#N.c1n(CCCC)c[n+](c1)C,8,600,196,8
283.15,60.0,0.1965,Training,1-butyl-3-methylimidazolium dicyanamide,CCCCN1C=C[N+](=C1)C.C(=[N-])=NC#N,C(C)CCn1cc[n+](C)c1.[N-]=C=NC#N,8,600,196,8
283.15,60.0,0.1965,Training,1-butyl-3-methylimidazolium dicyanamide,CCCCN1C=C[N+](=C1)C.C(=[N-])=NC#N,C[n+]1cn(cc1)CCCC.N#CN=C=[N-],8,600,196,8
283.15,60.0,0.1965,Training,1-butyl-3-methylimidazolium dicyanamide,CCCCN1C=C[N+](=C1)C.C(=[N-])=NC#N,C(Cn1c[n+](C)cc1)CC.C(N=C=[N-])#N,8,600,196,8
283.15,60.0,0.1965,Training,1-butyl-3-methylimidazolium dicyanamide,CCCCN1C=C[N+](=C1)C.C(=[N-])=NC#N,C(N=C=[N-])#N.n1(cc[n+](c1)C)CCCC,8,600,196,8
283.15,65.0,0.1972,Training,1-butyl-3-methylimidazolium dicyanamide,CCCCN1C=C[N+](=C1)C.C(=[N-])=NC#N,CCCCn1cc[n+](C)c1.N#CN=C=[N-],8,650,197,8
283.15,65.0,0.1972,Training,1-butyl-3-methylimidazolium dicyanamide,CCCCN1C=C[N+](=C1)C.C(=[N-])=NC#N,N(=C=[N-])C#N.[n+]1(C)cn(CCCC)cc1,8,650,197,8
283.15,65.0,0.1972,Training,1-butyl-3-methylimidazolium dicyanamide,CCCCN1C=C[N+](=C1)C.C(=[N-])=NC#N,N#CN=C=[N-].c1cn(c[n+]1C)CCCC,8,650,197,8
283.15,65.0,0.1972,Training,1-butyl-3-methylimidazolium dicyanamide,CCCCN1C=C[N+](=C1)C.C(=[N-])=NC#N,C(=NC#N)=[N-].[n+]1(C)cn(cc1)CCCC,8,650,197,8
283.15,65.0,0.1972,Training,1-butyl-3-methylimidazolium dicyanamide,CCCCN1C=C[N+](=C1)C.C(=[N-])=NC#N,N#CN=C=[N-].n1(CCCC)c[n+](cc1)C,8,650,197,8
283.15,65.0,0.1972,Training,1-butyl-3-methylimidazolium dicyanamide,CCCCN1C=C[N+](=C1)C.C(=[N-])=NC#N,C(=NC#N)=[N-].c1c[n+](C)cn1CCCC,8,650,197,8
283.15,65.0,0.1972,Training,1-butyl-3-methylimidazolium dicyanamide,CCCCN1C=C[N+](=C1)C.C(=[N-])=NC#N,C(#N)N=C=[N-].c1[n+](ccn1CCCC)C,8,650,197,8
283.15,65.0,0.1972,Training,1-butyl-3-methylimidazolium dicyanamide,CCCCN1C=C[N+](=C1)C.C(=[N-])=NC#N,C(=[N-])=NC#N.n1(CCCC)c[n+](C)cc1,8,650,197,8
283.15,65.0,0.1972,Training,1-butyl-3-methylimidazolium dicyanamide,CCCCN1C=C[N+](=C1)C.C(=[N-])=NC#N,C(=[N-])=NC#N.c1cn(CCCC)c[n+]1C,8,650,197,8
283.15,65.0,0.1972,Training,1-butyl-3-methylimidazolium dicyanamide,CCCCN1C=C[N+](=C1)C.C(=[N-])=NC#N,C(Cn1c[n+](cc1)C)CC.N(C#N)=C=[N-],8,650,197,8
293.15,0.1,0.1725,Training,1-butyl-3-methylimidazolium dicyanamide,CCCCN1C=C[N+](=C1)C.C(=[N-])=NC#N,CCCCn1cc[n+](C)c1.N#CN=C=[N-],8,1,198,8
293.15,0.1,0.1725,Training,1-butyl-3-methylimidazolium dicyanamide,CCCCN1C=C[N+](=C1)C.C(=[N-])=NC#N,N(C#N)=C=[N-].n1(cc[n+](c1)C)CCCC,8,1,198,8
293.15,0.1,0.1725,Training,1-butyl-3-methylimidazolium dicyanamide,CCCCN1C=C[N+](=C1)C.C(=[N-])=NC#N,C(=[N-])=NC#N.c1c[n+](cn1CCCC)C,8,1,198,8
293.15,0.1,0.1725,Training,1-butyl-3-methylimidazolium dicyanamide,CCCCN1C=C[N+](=C1)C.C(=[N-])=NC#N,C(N=C=[N-])#N.c1cn(c[n+]1C)CCCC,8,1,198,8
293.15,0.1,0.1725,Training,1-butyl-3-methylimidazolium dicyanamide,CCCCN1C=C[N+](=C1)C.C(=[N-])=NC#N,[N-]=C=NC#N.c1n(CCCC)c[n+](C)c1,8,1,198,8
293.15,0.1,0.1725,Training,1-butyl-3-methylimidazolium dicyanamide,CCCCN1C=C[N+](=C1)C.C(=[N-])=NC#N,C(N=C=[N-])#N.c1[n+](ccn1CCCC)C,8,1,198,8
293.15,0.1,0.1725,Training,1-butyl-3-methylimidazolium dicyanamide,CCCCN1C=C[N+](=C1)C.C(=[N-])=NC#N,C(#N)N=C=[N-].C(C)CCn1cc[n+](c1)C,8,1,198,8
293.15,0.1,0.1725,Training,1-butyl-3-methylimidazolium dicyanamide,CCCCN1C=C[N+](=C1)C.C(=[N-])=NC#N,N#CN=C=[N-].c1n(cc[n+]1C)CCCC,8,1,198,8
293.15,0.1,0.1725,Training,1-butyl-3-methylimidazolium dicyanamide,CCCCN1C=C[N+](=C1)C.C(=[N-])=NC#N,C(=[N-])=NC#N.[n+]1(C)cn(CCCC)cc1,8,1,198,8
293.15,0.1,0.1725,Training,1-butyl-3-methylimidazolium dicyanamide,CCCCN1C=C[N+](=C1)C.C(=[N-])=NC#N,[N-]=C=NC#N.[n+]1(C)ccn(c1)CCCC,8,1,198,8
293.15,5.0,0.1763,Testing,1-butyl-3-methylimidazolium dicyanamide,CCCCN1C=C[N+](=C1)C.C(=[N-])=NC#N,CCCCn1cc[n+](C)c1.N#CN=C=[N-],8,50,199,8
293.15,5.0,0.1763,Testing,1-butyl-3-methylimidazolium dicyanamide,CCCCN1C=C[N+](=C1)C.C(=[N-])=NC#N,CCCCn1cc[n+](c1)C.[N-]=C=NC#N,8,50,199,8
293.15,5.0,0.1763,Testing,1-butyl-3-methylimidazolium dicyanamide,CCCCN1C=C[N+](=C1)C.C(=[N-])=NC#N,C(CC)Cn1cc[n+](C)c1.N#CN=C=[N-],8,50,199,8
293.15,5.0,0.1763,Testing,1-butyl-3-methylimidazolium dicyanamide,CCCCN1C=C[N+](=C1)C.C(=[N-])=NC#N,C(CC)Cn1cc[n+](c1)C.[N-]=C=NC#N,8,50,199,8
293.15,5.0,0.1763,Testing,1-butyl-3-methylimidazolium dicyanamide,CCCCN1C=C[N+](=C1)C.C(=[N-])=NC#N,C(=NC#N)=[N-].c1n(CCCC)cc[n+]1C,8,50,199,8
293.15,5.0,0.1763,Testing,1-butyl-3-methylimidazolium dicyanamide,CCCCN1C=C[N+](=C1)C.C(=[N-])=NC#N,N(=C=[N-])C#N.n1(cc[n+](C)c1)CCCC,8,50,199,8
293.15,5.0,0.1763,Testing,1-butyl-3-methylimidazolium dicyanamide,CCCCN1C=C[N+](=C1)C.C(=[N-])=NC#N,C(Cn1c[n+](cc1)C)CC.N(=C=[N-])C#N,8,50,199,8
293.15,5.0,0.1763,Testing,1-butyl-3-methylimidazolium dicyanamide,CCCCN1C=C[N+](=C1)C.C(=[N-])=NC#N,C(=[N-])=NC#N.C(Cn1c[n+](cc1)C)CC,8,50,199,8
293.15,5.0,0.1763,Testing,1-butyl-3-methylimidazolium dicyanamide,CCCCN1C=C[N+](=C1)C.C(=[N-])=NC#N,C(CCn1c[n+](C)cc1)C.N#CN=C=[N-],8,50,199,8
293.15,5.0,0.1763,Testing,1-butyl-3-methylimidazolium dicyanamide,CCCCN1C=C[N+](=C1)C.C(=[N-])=NC#N,C(C)CCn1c[n+](cc1)C.N#CN=C=[N-],8,50,199,8
293.15,10.0,0.178,Training,1-butyl-3-methylimidazolium dicyanamide,CCCCN1C=C[N+](=C1)C.C(=[N-])=NC#N,CCCCn1cc[n+](C)c1.N#CN=C=[N-],8,100,200,8
293.15,10.0,0.178,Training,1-butyl-3-methylimidazolium dicyanamide,CCCCN1C=C[N+](=C1)C.C(=[N-])=NC#N,C(CCn1c[n+](C)cc1)C.N#CN=C=[N-],8,100,200,8
293.15,10.0,0.178,Training,1-butyl-3-methylimidazolium dicyanamide,CCCCN1C=C[N+](=C1)C.C(=[N-])=NC#N,C(CC)Cn1c[n+](cc1)C.C(N=C=[N-])#N,8,100,200,8
293.15,10.0,0.178,Training,1-butyl-3-methylimidazolium dicyanamide,CCCCN1C=C[N+](=C1)C.C(=[N-])=NC#N,[N-]=C=NC#N.n1(cc[n+](c1)C)CCCC,8,100,200,8
293.15,10.0,0.178,Training,1-butyl-3-methylimidazolium dicyanamide,CCCCN1C=C[N+](=C1)C.C(=[N-])=NC#N,C(=[N-])=NC#N.CCCCn1cc[n+](c1)C,8,100,200,8
293.15,10.0,0.178,Training,1-butyl-3-methylimidazolium dicyanamide,CCCCN1C=C[N+](=C1)C.C(=[N-])=NC#N,C(C)CCn1cc[n+](c1)C.N#CN=C=[N-],8,100,200,8
293.15,10.0,0.178,Training,1-butyl-3-methylimidazolium dicyanamide,CCCCN1C=C[N+](=C1)C.C(=[N-])=NC#N,C(N=C=[N-])#N.c1c[n+](cn1CCCC)C,8,100,200,8
293.15,10.0,0.178,Training,1-butyl-3-methylimidazolium dicyanamide,CCCCN1C=C[N+](=C1)C.C(=[N-])=NC#N,C(=NC#N)=[N-].c1cn(c[n+]1C)CCCC,8,100,200,8
293.15,10.0,0.178,Training,1-butyl-3-methylimidazolium dicyanamide,CCCCN1C=C[N+](=C1)C.C(=[N-])=NC#N,C(#N)N=C=[N-].[n+]1(cn(cc1)CCCC)C,8,100,200,8
293.15,10.0,0.178,Training,1-butyl-3-methylimidazolium dicyanamide,CCCCN1C=C[N+](=C1)C.C(=[N-])=NC#N,C(=[N-])=NC#N.C[n+]1cn(CCCC)cc1,8,100,200,8
293.15,20.0,0.1826,Training,1-butyl-3-methylimidazolium dicyanamide,CCCCN1C=C[N+](=C1)C.C(=[N-])=NC#N,CCCCn1cc[n+](C)c1.N#CN=C=[N-],8,200,201,8
293.15,20.0,0.1826,Training,1-butyl-3-methylimidazolium dicyanamide,CCCCN1C=C[N+](=C1)C.C(=[N-])=NC#N,CCCCn1c[n+](C)cc1.[N-]=C=NC#N,8,200,201,8
293.15,20.0,0.1826,Training,1-butyl-3-methylimidazolium dicyanamide,CCCCN1C=C[N+](=C1)C.C(=[N-])=NC#N,C(#N)N=C=[N-].n1(CCCC)cc[n+](c1)C,8,200,201,8
293.15,20.0,0.1826,Training,1-butyl-3-methylimidazolium dicyanamide,CCCCN1C=C[N+](=C1)C.C(=[N-])=NC#N,C(#N)N=C=[N-].C(CCn1c[n+](cc1)C)C,8,200,201,8
293.15,20.0,0.1826,Training,1-butyl-3-methylimidazolium dicyanamide,CCCCN1C=C[N+](=C1)C.C(=[N-])=NC#N,C(C)CCn1c[n+](cc1)C.[N-]=C=NC#N,8,200,201,8
293.15,20.0,0.1826,Training,1-butyl-3-methylimidazolium dicyanamide,CCCCN1C=C[N+](=C1)C.C(=[N-])=NC#N,[N-]=C=NC#N.[n+]1(ccn(CCCC)c1)C,8,200,201,8
293.15,20.0,0.1826,Training,1-butyl-3-methylimidazolium dicyanamide,CCCCN1C=C[N+](=C1)C.C(=[N-])=NC#N,[N-]=C=NC#N.n1(cc[n+](c1)C)CCCC,8,200,201,8
293.15,20.0,0.1826,Training,1-butyl-3-methylimidazolium dicyanamide,CCCCN1C=C[N+](=C1)C.C(=[N-])=NC#N,C(CCC)n1c[n+](C)cc1.[N-]=C=NC#N,8,200,201,8
293.15,20.0,0.1826,Training,1-butyl-3-methylimidazolium dicyanamide,CCCCN1C=C[N+](=C1)C.C(=[N-])=NC#N,C(C)CCn1c[n+](cc1)C.C(N=C=[N-])#N,8,200,201,8
293.15,20.0,0.1826,Training,1-butyl-3-methylimidazolium dicyanamide,CCCCN1C=C[N+](=C1)C.C(=[N-])=NC#N,C(=[N-])=NC#N.c1[n+](ccn1CCCC)C,8,200,201,8
293.15,30.0,0.186,Training,1-butyl-3-methylimidazolium dicyanamide,CCCCN1C=C[N+](=C1)C.C(=[N-])=NC#N,CCCCn1cc[n+](C)c1.N#CN=C=[N-],8,300,202,8
293.15,30.0,0.186,Training,1-butyl-3-methylimidazolium dicyanamide,CCCCN1C=C[N+](=C1)C.C(=[N-])=NC#N,N(C#N)=C=[N-].c1[n+](ccn1CCCC)C,8,300,202,8
293.15,30.0,0.186,Training,1-butyl-3-methylimidazolium dicyanamide,CCCCN1C=C[N+](=C1)C.C(=[N-])=NC#N,C(=[N-])=NC#N.CCCCn1c[n+](C)cc1,8,300,202,8
293.15,30.0,0.186,Training,1-butyl-3-methylimidazolium dicyanamide,CCCCN1C=C[N+](=C1)C.C(=[N-])=NC#N,C(CCC)n1c[n+](C)cc1.C(N=C=[N-])#N,8,300,202,8
293.15,30.0,0.186,Training,1-butyl-3-methylimidazolium dicyanamide,CCCCN1C=C[N+](=C1)C.C(=[N-])=NC#N,N#CN=C=[N-].c1[n+](cn(c1)CCCC)C,8,300,202,8
293.15,30.0,0.186,Training,1-butyl-3-methylimidazolium dicyanamide,CCCCN1C=C[N+](=C1)C.C(=[N-])=NC#N,N#CN=C=[N-].c1n(c[n+](C)c1)CCCC,8,300,202,8
293.15,30.0,0.186,Training,1-butyl-3-methylimidazolium dicyanamide,CCCCN1C=C[N+](=C1)C.C(=[N-])=NC#N,C(=[N-])=NC#N.C(CCC)n1cc[n+](c1)C,8,300,202,8
293.15,30.0,0.186,Training,1-butyl-3-methylimidazolium dicyanamide,CCCCN1C=C[N+](=C1)C.C(=[N-])=NC#N,N(=C=[N-])C#N.c1[n+](C)ccn1CCCC,8,300,202,8
293.15,30.0,0.186,Training,1-butyl-3-methylimidazolium dicyanamide,CCCCN1C=C[N+](=C1)C.C(=[N-])=NC#N,C[n+]1ccn(c1)CCCC.[N-]=C=NC#N,8,300,202,8
293.15,30.0,0.186,Training,1-butyl-3-methylimidazolium dicyanamide,CCCCN1C=C[N+](=C1)C.C(=[N-])=NC#N,C(#N)N=C=[N-].n1(cc[n+](c1)C)CCCC,8,300,202,8
293.15,40.0,0.1885,Training,1-butyl-3-methylimidazolium dicyanamide,CCCCN1C=C[N+](=C1)C.C(=[N-])=NC#N,CCCCn1cc[n+](C)c1.N#CN=C=[N-],8,400,203,8
293.15,40.0,0.1885,Training,1-butyl-3-methylimidazolium dicyanamide,CCCCN1C=C[N+](=C1)C.C(=[N-])=NC#N,N(=C=[N-])C#N.[n+]1(C)ccn(CCCC)c1,8,400,203,8
293.15,40.0,0.1885,Training,1-butyl-3-methylimidazolium dicyanamide,CCCCN1C=C[N+](=C1)C.C(=[N-])=NC#N,C(CCn1cc[n+](c1)C)C.N#CN=C=[N-],8,400,203,8
293.15,40.0,0.1885,Training,1-butyl-3-methylimidazolium dicyanamide,CCCCN1C=C[N+](=C1)C.C(=[N-])=NC#N,C(#N)N=C=[N-].[n+]1(C)cn(CCCC)cc1,8,400,203,8
293.15,40.0,0.1885,Training,1-butyl-3-methylimidazolium dicyanamide,CCCCN1C=C[N+](=C1)C.C(=[N-])=NC#N,C(#N)N=C=[N-].CCCCn1c[n+](C)cc1,8,400,203,8
293.15,40.0,0.1885,Training,1-butyl-3-methylimidazolium dicyanamide,CCCCN1C=C[N+](=C1)C.C(=[N-])=NC#N,C(C)CCn1cc[n+](c1)C.N(=C=[N-])C#N,8,400,203,8
293.15,40.0,0.1885,Training,1-butyl-3-methylimidazolium dicyanamide,CCCCN1C=C[N+](=C1)C.C(=[N-])=NC#N,C(#N)N=C=[N-].c1n(c[n+](c1)C)CCCC,8,400,203,8
293.15,40.0,0.1885,Training,1-butyl-3-methylimidazolium dicyanamide,CCCCN1C=C[N+](=C1)C.C(=[N-])=NC#N,C(n1c[n+](C)cc1)CCC.N#CN=C=[N-],8,400,203,8
293.15,40.0,0.1885,Training,1-butyl-3-methylimidazolium dicyanamide,CCCCN1C=C[N+](=C1)C.C(=[N-])=NC#N,C(n1c[n+](C)cc1)CCC.N(C#N)=C=[N-],8,400,203,8
293.15,40.0,0.1885,Training,1-butyl-3-methylimidazolium dicyanamide,CCCCN1C=C[N+](=C1)C.C(=[N-])=NC#N,CCCCn1cc[n+](c1)C.N#CN=C=[N-],8,400,203,8
293.15,50.0,0.1895,Training,1-butyl-3-methylimidazolium dicyanamide,CCCCN1C=C[N+](=C1)C.C(=[N-])=NC#N,CCCCn1cc[n+](C)c1.N#CN=C=[N-],8,500,204,8
293.15,50.0,0.1895,Training,1-butyl-3-methylimidazolium dicyanamide,CCCCN1C=C[N+](=C1)C.C(=[N-])=NC#N,CCCCn1c[n+](C)cc1.[N-]=C=NC#N,8,500,204,8
293.15,50.0,0.1895,Training,1-butyl-3-methylimidazolium dicyanamide,CCCCN1C=C[N+](=C1)C.C(=[N-])=NC#N,CCCCn1cc[n+](c1)C.[N-]=C=NC#N,8,500,204,8
293.15,50.0,0.1895,Training,1-butyl-3-methylimidazolium dicyanamide,CCCCN1C=C[N+](=C1)C.C(=[N-])=NC#N,C(=[N-])=NC#N.C(C)CCn1cc[n+](c1)C,8,500,204,8
293.15,50.0,0.1895,Training,1-butyl-3-methylimidazolium dicyanamide,CCCCN1C=C[N+](=C1)C.C(=[N-])=NC#N,N(C#N)=C=[N-].c1cn(c[n+]1C)CCCC,8,500,204,8
293.15,50.0,0.1895,Training,1-butyl-3-methylimidazolium dicyanamide,CCCCN1C=C[N+](=C1)C.C(=[N-])=NC#N,CCCCn1cc[n+](C)c1.N(=C=[N-])C#N,8,500,204,8
293.15,50.0,0.1895,Training,1-butyl-3-methylimidazolium dicyanamide,CCCCN1C=C[N+](=C1)C.C(=[N-])=NC#N,C(#N)N=C=[N-].[n+]1(cn(CCCC)cc1)C,8,500,204,8
293.15,50.0,0.1895,Training,1-butyl-3-methylimidazolium dicyanamide,CCCCN1C=C[N+](=C1)C.C(=[N-])=NC#N,C(N=C=[N-])#N.CCCCn1c[n+](C)cc1,8,500,204,8
293.15,50.0,0.1895,Training,1-butyl-3-methylimidazolium dicyanamide,CCCCN1C=C[N+](=C1)C.C(=[N-])=NC#N,C(n1c[n+](cc1)C)CCC.N(=C=[N-])C#N,8,500,204,8
293.15,50.0,0.1895,Training,1-butyl-3-methylimidazolium dicyanamide,CCCCN1C=C[N+](=C1)C.C(=[N-])=NC#N,C(n1cc[n+](C)c1)CCC.N#CN=C=[N-],8,500,204,8
293.15,60.0,0.1918,Training,1-butyl-3-methylimidazolium dicyanamide,CCCCN1C=C[N+](=C1)C.C(=[N-])=NC#N,CCCCn1cc[n+](C)c1.N#CN=C=[N-],8,600,205,8
293.15,60.0,0.1918,Training,1-butyl-3-methylimidazolium dicyanamide,CCCCN1C=C[N+](=C1)C.C(=[N-])=NC#N,C(=NC#N)=[N-].c1cn(c[n+]1C)CCCC,8,600,205,8
293.15,60.0,0.1918,Training,1-butyl-3-methylimidazolium dicyanamide,CCCCN1C=C[N+](=C1)C.C(=[N-])=NC#N,C(CC)Cn1cc[n+](C)c1.[N-]=C=NC#N,8,600,205,8
293.15,60.0,0.1918,Training,1-butyl-3-methylimidazolium dicyanamide,CCCCN1C=C[N+](=C1)C.C(=[N-])=NC#N,C[n+]1ccn(c1)CCCC.N#CN=C=[N-],8,600,205,8
293.15,60.0,0.1918,Training,1-butyl-3-methylimidazolium dicyanamide,CCCCN1C=C[N+](=C1)C.C(=[N-])=NC#N,C(N=C=[N-])#N.c1cn(c[n+]1C)CCCC,8,600,205,8
293.15,60.0,0.1918,Training,1-butyl-3-methylimidazolium dicyanamide,CCCCN1C=C[N+](=C1)C.C(=[N-])=NC#N,C(=NC#N)=[N-].c1n(CCCC)cc[n+]1C,8,600,205,8
293.15,60.0,0.1918,Training,1-butyl-3-methylimidazolium dicyanamide,CCCCN1C=C[N+](=C1)C.C(=[N-])=NC#N,[N-]=C=NC#N.n1(CCCC)cc[n+](C)c1,8,600,205,8
293.15,60.0,0.1918,Training,1-butyl-3-methylimidazolium dicyanamide,CCCCN1C=C[N+](=C1)C.C(=[N-])=NC#N,N#CN=C=[N-].[n+]1(C)cn(cc1)CCCC,8,600,205,8
293.15,60.0,0.1918,Training,1-butyl-3-methylimidazolium dicyanamide,CCCCN1C=C[N+](=C1)C.C(=[N-])=NC#N,C(N=C=[N-])#N.[n+]1(C)cn(CCCC)cc1,8,600,205,8
293.15,60.0,0.1918,Training,1-butyl-3-methylimidazolium dicyanamide,CCCCN1C=C[N+](=C1)C.C(=[N-])=NC#N,C(#N)N=C=[N-].c1[n+](C)cn(c1)CCCC,8,600,205,8
293.15,65.0,0.1928,Training,1-butyl-3-methylimidazolium dicyanamide,CCCCN1C=C[N+](=C1)C.C(=[N-])=NC#N,CCCCn1cc[n+](C)c1.N#CN=C=[N-],8,650,206,8
293.15,65.0,0.1928,Training,1-butyl-3-methylimidazolium dicyanamide,CCCCN1C=C[N+](=C1)C.C(=[N-])=NC#N,[N-]=C=NC#N.c1c[n+](cn1CCCC)C,8,650,206,8
293.15,65.0,0.1928,Training,1-butyl-3-methylimidazolium dicyanamide,CCCCN1C=C[N+](=C1)C.C(=[N-])=NC#N,C(N=C=[N-])#N.c1n(CCCC)cc[n+]1C,8,650,206,8
293.15,65.0,0.1928,Training,1-butyl-3-methylimidazolium dicyanamide,CCCCN1C=C[N+](=C1)C.C(=[N-])=NC#N,C(=NC#N)=[N-].CCCCn1cc[n+](C)c1,8,650,206,8
293.15,65.0,0.1928,Training,1-butyl-3-methylimidazolium dicyanamide,CCCCN1C=C[N+](=C1)C.C(=[N-])=NC#N,N(C#N)=C=[N-].c1[n+](C)cn(c1)CCCC,8,650,206,8
293.15,65.0,0.1928,Training,1-butyl-3-methylimidazolium dicyanamide,CCCCN1C=C[N+](=C1)C.C(=[N-])=NC#N,C(#N)N=C=[N-].C(C)CCn1c[n+](C)cc1,8,650,206,8
293.15,65.0,0.1928,Training,1-butyl-3-methylimidazolium dicyanamide,CCCCN1C=C[N+](=C1)C.C(=[N-])=NC#N,C(N=C=[N-])#N.C[n+]1cn(cc1)CCCC,8,650,206,8
293.15,65.0,0.1928,Training,1-butyl-3-methylimidazolium dicyanamide,CCCCN1C=C[N+](=C1)C.C(=[N-])=NC#N,C(Cn1c[n+](C)cc1)CC.N#CN=C=[N-],8,650,206,8