T/K,P/MPa,TC/W m-1 K-1,Data type,Name,SMILES,Normalized SMILES,index,P/bar,RANDOM,IL
293.15,65.0,0.1248,Testing,1-butyl-1-methyl-pyrrolidinium bis(trifluoromethylsulfonyl)imide,CCCC[N+]1(CCCC1)C.C(F)(F)(F)S(=O)(=O)[N-]S(=O)(=O)C(F)(F)F,C1CCC[N+]1(C)CCCC.O=S([N-]S(=O)(C(F)(F)F)=O)(=O)C(F)(F)F,2,650,54,2
293.15,65.0,0.1248,Testing,1-butyl-1-methyl-pyrrolidinium bis(trifluoromethylsulfonyl)imide,CCCC[N+]1(CCCC1)C.C(F)(F)(F)S(=O)(=O)[N-]S(=O)(=O)C(F)(F)F,C1[N+](CCCC)(C)CCC1.S(=O)(C(F)(F)F)([N-]S(C(F)(F)F)(=O)=O)=O,2,650,54,2
293.15,65.0,0.1248,Testing,1-butyl-1-methyl-pyrrolidinium bis(trifluoromethylsulfonyl)imide,CCCC[N+]1(CCCC1)C.C(F)(F)(F)S(=O)(=O)[N-]S(=O)(=O)C(F)(F)F,C(CC[N+]1(C)CCCC1)C.C(F)(S(=O)([N-]S(C(F)(F)F)(=O)=O)=O)(F)F,2,650,54,2
293.15,65.0,0.1248,Testing,1-butyl-1-methyl-pyrrolidinium bis(trifluoromethylsulfonyl)imide,CCCC[N+]1(CCCC1)C.C(F)(F)(F)S(=O)(=O)[N-]S(=O)(=O)C(F)(F)F,C(CC)C[N+]1(CCCC1)C.O=S([N-]S(=O)(C(F)(F)F)=O)(=O)C(F)(F)F,2,650,54,2
303.15,0.1,0.1086,Training,1-butyl-1-methyl-pyrrolidinium bis(trifluoromethylsulfonyl)imide,CCCC[N+]1(CCCC1)C.C(F)(F)(F)S(=O)(=O)[N-]S(=O)(=O)C(F)(F)F,CCCC[N+]1(C)CCCC1.O=S(=O)([N-]S(=O)(=O)C(F)(F)F)C(F)(F)F,2,1,55,2
303.15,0.1,0.1086,Training,1-butyl-1-methyl-pyrrolidinium bis(trifluoromethylsulfonyl)imide,CCCC[N+]1(CCCC1)C.C(F)(F)(F)S(=O)(=O)[N-]S(=O)(=O)C(F)(F)F,C1C[N+](CCCC)(CC1)C.FC(F)(F)S(=O)(=O)[N-]S(=O)(C(F)(F)F)=O,2,1,55,2
303.15,0.1,0.1086,Training,1-butyl-1-methyl-pyrrolidinium bis(trifluoromethylsulfonyl)imide,CCCC[N+]1(CCCC1)C.C(F)(F)(F)S(=O)(=O)[N-]S(=O)(=O)C(F)(F)F,FC(F)(S(=O)([N-]S(C(F)(F)F)(=O)=O)=O)F.[N+]1(CCCC)(CCCC1)C,2,1,55,2
303.15,0.1,0.1086,Training,1-butyl-1-methyl-pyrrolidinium bis(trifluoromethylsulfonyl)imide,CCCC[N+]1(CCCC1)C.C(F)(F)(F)S(=O)(=O)[N-]S(=O)(=O)C(F)(F)F,C1[N+](C)(CCC1)CCCC.FC(F)(F)S(=O)(=O)[N-]S(C(F)(F)F)(=O)=O,2,1,55,2
303.15,0.1,0.1086,Training,1-butyl-1-methyl-pyrrolidinium bis(trifluoromethylsulfonyl)imide,CCCC[N+]1(CCCC1)C.C(F)(F)(F)S(=O)(=O)[N-]S(=O)(=O)C(F)(F)F,C(C[N+]1(CCCC1)C)CC.S(C(F)(F)F)([N-]S(=O)(=O)C(F)(F)F)(=O)=O,2,1,55,2
303.15,0.1,0.1086,Training,1-butyl-1-methyl-pyrrolidinium bis(trifluoromethylsulfonyl)imide,CCCC[N+]1(CCCC1)C.C(F)(F)(F)S(=O)(=O)[N-]S(=O)(=O)C(F)(F)F,C1CC[N+](C1)(C)CCCC.FC(F)(S([N-]S(C(F)(F)F)(=O)=O)(=O)=O)F,2,1,55,2
303.15,0.1,0.1086,Training,1-butyl-1-methyl-pyrrolidinium bis(trifluoromethylsulfonyl)imide,CCCC[N+]1(CCCC1)C.C(F)(F)(F)S(=O)(=O)[N-]S(=O)(=O)C(F)(F)F,CCCC[N+]1(CCCC1)C.O=S(=O)([N-]S(C(F)(F)F)(=O)=O)C(F)(F)F,2,1,55,2
303.15,0.1,0.1086,Training,1-butyl-1-methyl-pyrrolidinium bis(trifluoromethylsulfonyl)imide,CCCC[N+]1(CCCC1)C.C(F)(F)(F)S(=O)(=O)[N-]S(=O)(=O)C(F)(F)F,C(C)CC[N+]1(C)CCCC1.FC(F)(S(=O)(=O)[N-]S(=O)(C(F)(F)F)=O)F,2,1,55,2
303.15,0.1,0.1086,Training,1-butyl-1-methyl-pyrrolidinium bis(trifluoromethylsulfonyl)imide,CCCC[N+]1(CCCC1)C.C(F)(F)(F)S(=O)(=O)[N-]S(=O)(=O)C(F)(F)F,C1C[N+](CC1)(CCCC)C.S(=O)(C(F)(F)F)(=O)[N-]S(C(F)(F)F)(=O)=O,2,1,55,2
303.15,5.0,0.1121,Training,1-butyl-1-methyl-pyrrolidinium bis(trifluoromethylsulfonyl)imide,CCCC[N+]1(CCCC1)C.C(F)(F)(F)S(=O)(=O)[N-]S(=O)(=O)C(F)(F)F,CCCC[N+]1(C)CCCC1.O=S(=O)([N-]S(=O)(=O)C(F)(F)F)C(F)(F)F,2,50,56,2
303.15,5.0,0.1121,Training,1-butyl-1-methyl-pyrrolidinium bis(trifluoromethylsulfonyl)imide,CCCC[N+]1(CCCC1)C.C(F)(F)(F)S(=O)(=O)[N-]S(=O)(=O)C(F)(F)F,C(C[N+]1(C)CCCC1)CC.FC(F)(F)S([N-]S(C(F)(F)F)(=O)=O)(=O)=O,2,50,56,2
303.15,5.0,0.1121,Training,1-butyl-1-methyl-pyrrolidinium bis(trifluoromethylsulfonyl)imide,CCCC[N+]1(CCCC1)C.C(F)(F)(F)S(=O)(=O)[N-]S(=O)(=O)C(F)(F)F,C1CCC[N+]1(CCCC)C.FC(S([N-]S(C(F)(F)F)(=O)=O)(=O)=O)(F)F,2,50,56,2
303.15,5.0,0.1121,Training,1-butyl-1-methyl-pyrrolidinium bis(trifluoromethylsulfonyl)imide,CCCC[N+]1(CCCC1)C.C(F)(F)(F)S(=O)(=O)[N-]S(=O)(=O)C(F)(F)F,C1CCC[N+]1(C)CCCC.FC(S([N-]S(=O)(=O)C(F)(F)F)(=O)=O)(F)F,2,50,56,2
303.15,5.0,0.1121,Training,1-butyl-1-methyl-pyrrolidinium bis(trifluoromethylsulfonyl)imide,CCCC[N+]1(CCCC1)C.C(F)(F)(F)S(=O)(=O)[N-]S(=O)(=O)C(F)(F)F,C[N+]1(CCCC1)CCCC.S(C(F)(F)F)(=O)(=O)[N-]S(=O)(C(F)(F)F)=O,2,50,56,2
303.15,5.0,0.1121,Training,1-butyl-1-methyl-pyrrolidinium bis(trifluoromethylsulfonyl)imide,CCCC[N+]1(CCCC1)C.C(F)(F)(F)S(=O)(=O)[N-]S(=O)(=O)C(F)(F)F,C(C[N+]1(CCCC1)C)CC.S(C(F)(F)F)([N-]S(=O)(=O)C(F)(F)F)(=O)=O,2,50,56,2
303.15,5.0,0.1121,Training,1-butyl-1-methyl-pyrrolidinium bis(trifluoromethylsulfonyl)imide,CCCC[N+]1(CCCC1)C.C(F)(F)(F)S(=O)(=O)[N-]S(=O)(=O)C(F)(F)F,C(CCC)[N+]1(C)CCCC1.O=S([N-]S(=O)(C(F)(F)F)=O)(=O)C(F)(F)F,2,50,56,2
303.15,5.0,0.1121,Training,1-butyl-1-methyl-pyrrolidinium bis(trifluoromethylsulfonyl)imide,CCCC[N+]1(CCCC1)C.C(F)(F)(F)S(=O)(=O)[N-]S(=O)(=O)C(F)(F)F,FC(F)(S(=O)([N-]S(=O)(=O)C(F)(F)F)=O)F.[N+]1(C)(CCCC)CCCC1,2,50,56,2
303.15,5.0,0.1121,Training,1-butyl-1-methyl-pyrrolidinium bis(trifluoromethylsulfonyl)imide,CCCC[N+]1(CCCC1)C.C(F)(F)(F)S(=O)(=O)[N-]S(=O)(=O)C(F)(F)F,C(C)CC[N+]1(C)CCCC1.FC(F)(F)S(=O)([N-]S(=O)(C(F)(F)F)=O)=O,2,50,56,2
303.15,5.0,0.1121,Training,1-butyl-1-methyl-pyrrolidinium bis(trifluoromethylsulfonyl)imide,CCCC[N+]1(CCCC1)C.C(F)(F)(F)S(=O)(=O)[N-]S(=O)(=O)C(F)(F)F,C1CCC[N+]1(C)CCCC.FC(F)(S([N-]S(=O)(=O)C(F)(F)F)(=O)=O)F,2,50,56,2
303.15,10.0,0.114,Training,1-butyl-1-methyl-pyrrolidinium bis(trifluoromethylsulfonyl)imide,CCCC[N+]1(CCCC1)C.C(F)(F)(F)S(=O)(=O)[N-]S(=O)(=O)C(F)(F)F,CCCC[N+]1(C)CCCC1.O=S(=O)([N-]S(=O)(=O)C(F)(F)F)C(F)(F)F,2,100,57,2
303.15,10.0,0.114,Training,1-butyl-1-methyl-pyrrolidinium bis(trifluoromethylsulfonyl)imide,CCCC[N+]1(CCCC1)C.C(F)(F)(F)S(=O)(=O)[N-]S(=O)(=O)C(F)(F)F,C1C[N+](CCCC)(CC1)C.FC(F)(S(=O)([N-]S(C(F)(F)F)(=O)=O)=O)F,2,100,57,2
303.15,10.0,0.114,Training,1-butyl-1-methyl-pyrrolidinium bis(trifluoromethylsulfonyl)imide,CCCC[N+]1(CCCC1)C.C(F)(F)(F)S(=O)(=O)[N-]S(=O)(=O)C(F)(F)F,C(CCC)[N+]1(C)CCCC1.S(=O)([N-]S(C(F)(F)F)(=O)=O)(=O)C(F)(F)F,2,100,57,2
303.15,10.0,0.114,Training,1-butyl-1-methyl-pyrrolidinium bis(trifluoromethylsulfonyl)imide,CCCC[N+]1(CCCC1)C.C(F)(F)(F)S(=O)(=O)[N-]S(=O)(=O)C(F)(F)F,C(F)(F)(F)S(=O)(=O)[N-]S(C(F)(F)F)(=O)=O.C1C[N+](CC1)(C)CCCC,2,100,57,2
303.15,10.0,0.114,Training,1-butyl-1-methyl-pyrrolidinium bis(trifluoromethylsulfonyl)imide,CCCC[N+]1(CCCC1)C.C(F)(F)(F)S(=O)(=O)[N-]S(=O)(=O)C(F)(F)F,C(F)(F)(F)S(=O)([N-]S(=O)(=O)C(F)(F)F)=O.[N+]1(CCCC)(CCCC1)C,2,100,57,2
303.15,10.0,0.114,Training,1-butyl-1-methyl-pyrrolidinium bis(trifluoromethylsulfonyl)imide,CCCC[N+]1(CCCC1)C.C(F)(F)(F)S(=O)(=O)[N-]S(=O)(=O)C(F)(F)F,C1CC[N+](CCCC)(C)C1.S([N-]S(=O)(C(F)(F)F)=O)(=O)(C(F)(F)F)=O,2,100,57,2
303.15,10.0,0.114,Training,1-butyl-1-methyl-pyrrolidinium bis(trifluoromethylsulfonyl)imide,CCCC[N+]1(CCCC1)C.C(F)(F)(F)S(=O)(=O)[N-]S(=O)(=O)C(F)(F)F,C([N+]1(CCCC1)C)CCC.S(=O)(C(F)(F)F)(=O)[N-]S(=O)(C(F)(F)F)=O,2,100,57,2
303.15,10.0,0.114,Training,1-butyl-1-methyl-pyrrolidinium bis(trifluoromethylsulfonyl)imide,CCCC[N+]1(CCCC1)C.C(F)(F)(F)S(=O)(=O)[N-]S(=O)(=O)C(F)(F)F,C(F)(F)(S([N-]S(=O)(C(F)(F)F)=O)(=O)=O)F.CCCC[N+]1(CCCC1)C,2,100,57,2
303.15,10.0,0.114,Training,1-butyl-1-methyl-pyrrolidinium bis(trifluoromethylsulfonyl)imide,CCCC[N+]1(CCCC1)C.C(F)(F)(F)S(=O)(=O)[N-]S(=O)(=O)C(F)(F)F,C[N+]1(CCCC1)CCCC.S(C(F)(F)F)(=O)([N-]S(C(F)(F)F)(=O)=O)=O,2,100,57,2
303.15,10.0,0.114,Training,1-butyl-1-methyl-pyrrolidinium bis(trifluoromethylsulfonyl)imide,CCCC[N+]1(CCCC1)C.C(F)(F)(F)S(=O)(=O)[N-]S(=O)(=O)C(F)(F)F,C[N+]1(CCCC)CCCC1.O=S(C(F)(F)F)([N-]S(C(F)(F)F)(=O)=O)=O,2,100,57,2
303.15,20.0,0.1152,Testing,1-butyl-1-methyl-pyrrolidinium bis(trifluoromethylsulfonyl)imide,CCCC[N+]1(CCCC1)C.C(F)(F)(F)S(=O)(=O)[N-]S(=O)(=O)C(F)(F)F,CCCC[N+]1(C)CCCC1.O=S(=O)([N-]S(=O)(=O)C(F)(F)F)C(F)(F)F,2,200,58,2
303.15,20.0,0.1152,Testing,1-butyl-1-methyl-pyrrolidinium bis(trifluoromethylsulfonyl)imide,CCCC[N+]1(CCCC1)C.C(F)(F)(F)S(=O)(=O)[N-]S(=O)(=O)C(F)(F)F,C1C[N+](CCCC)(CC1)C.S(=O)([N-]S(=O)(C(F)(F)F)=O)(=O)C(F)(F)F,2,200,58,2
303.15,20.0,0.1152,Testing,1-butyl-1-methyl-pyrrolidinium bis(trifluoromethylsulfonyl)imide,CCCC[N+]1(CCCC1)C.C(F)(F)(F)S(=O)(=O)[N-]S(=O)(=O)C(F)(F)F,C(CC)C[N+]1(C)CCCC1.O=S(C(F)(F)F)(=O)[N-]S(C(F)(F)F)(=O)=O,2,200,58,2
303.15,20.0,0.1152,Testing,1-butyl-1-methyl-pyrrolidinium bis(trifluoromethylsulfonyl)imide,CCCC[N+]1(CCCC1)C.C(F)(F)(F)S(=O)(=O)[N-]S(=O)(=O)C(F)(F)F,C1[N+](CCC1)(C)CCCC.FC(S(=O)(=O)[N-]S(=O)(=O)C(F)(F)F)(F)F,2,200,58,2
303.15,20.0,0.1152,Testing,1-butyl-1-methyl-pyrrolidinium bis(trifluoromethylsulfonyl)imide,CCCC[N+]1(CCCC1)C.C(F)(F)(F)S(=O)(=O)[N-]S(=O)(=O)C(F)(F)F,C[N+]1(CCCC1)CCCC.O=S(=O)([N-]S(=O)(C(F)(F)F)=O)C(F)(F)F,2,200,58,2
303.15,20.0,0.1152,Testing,1-butyl-1-methyl-pyrrolidinium bis(trifluoromethylsulfonyl)imide,CCCC[N+]1(CCCC1)C.C(F)(F)(F)S(=O)(=O)[N-]S(=O)(=O)C(F)(F)F,C(CC[N+]1(C)CCCC1)C.FC(S([N-]S(=O)(C(F)(F)F)=O)(=O)=O)(F)F,2,200,58,2
303.15,20.0,0.1152,Testing,1-butyl-1-methyl-pyrrolidinium bis(trifluoromethylsulfonyl)imide,CCCC[N+]1(CCCC1)C.C(F)(F)(F)S(=O)(=O)[N-]S(=O)(=O)C(F)(F)F,C[N+]1(CCCC)CCCC1.FC(F)(F)S(=O)([N-]S(C(F)(F)F)(=O)=O)=O,2,200,58,2
303.15,20.0,0.1152,Testing,1-butyl-1-methyl-pyrrolidinium bis(trifluoromethylsulfonyl)imide,CCCC[N+]1(CCCC1)C.C(F)(F)(F)S(=O)(=O)[N-]S(=O)(=O)C(F)(F)F,C1CCC[N+]1(C)CCCC.O=S(C(F)(F)F)([N-]S(=O)(C(F)(F)F)=O)=O,2,200,58,2
303.15,20.0,0.1152,Testing,1-butyl-1-methyl-pyrrolidinium bis(trifluoromethylsulfonyl)imide,CCCC[N+]1(CCCC1)C.C(F)(F)(F)S(=O)(=O)[N-]S(=O)(=O)C(F)(F)F,C1CCC[N+]1(CCCC)C.[N-](S(C(F)(F)F)(=O)=O)S(C(F)(F)F)(=O)=O,2,200,58,2
303.15,20.0,0.1152,Testing,1-butyl-1-methyl-pyrrolidinium bis(trifluoromethylsulfonyl)imide,CCCC[N+]1(CCCC1)C.C(F)(F)(F)S(=O)(=O)[N-]S(=O)(=O)C(F)(F)F,CCCC[N+]1(C)CCCC1.S([N-]S(=O)(=O)C(F)(F)F)(C(F)(F)F)(=O)=O,2,200,58,2
303.15,30.0,0.1176,Training,1-butyl-1-methyl-pyrrolidinium bis(trifluoromethylsulfonyl)imide,CCCC[N+]1(CCCC1)C.C(F)(F)(F)S(=O)(=O)[N-]S(=O)(=O)C(F)(F)F,CCCC[N+]1(C)CCCC1.O=S(=O)([N-]S(=O)(=O)C(F)(F)F)C(F)(F)F,2,300,59,2
303.15,30.0,0.1176,Training,1-butyl-1-methyl-pyrrolidinium bis(trifluoromethylsulfonyl)imide,CCCC[N+]1(CCCC1)C.C(F)(F)(F)S(=O)(=O)[N-]S(=O)(=O)C(F)(F)F,C[N+]1(CCCC)CCCC1.[N-](S(=O)(C(F)(F)F)=O)S(=O)(C(F)(F)F)=O,2,300,59,2
303.15,30.0,0.1176,Training,1-butyl-1-methyl-pyrrolidinium bis(trifluoromethylsulfonyl)imide,CCCC[N+]1(CCCC1)C.C(F)(F)(F)S(=O)(=O)[N-]S(=O)(=O)C(F)(F)F,C1[N+](CCC1)(C)CCCC.FC(S(=O)(=O)[N-]S(C(F)(F)F)(=O)=O)(F)F,2,300,59,2
303.15,30.0,0.1176,Training,1-butyl-1-methyl-pyrrolidinium bis(trifluoromethylsulfonyl)imide,CCCC[N+]1(CCCC1)C.C(F)(F)(F)S(=O)(=O)[N-]S(=O)(=O)C(F)(F)F,C1[N+](CCCC)(CCC1)C.S(=O)(=O)([N-]S(C(F)(F)F)(=O)=O)C(F)(F)F,2,300,59,2
303.15,30.0,0.1176,Training,1-butyl-1-methyl-pyrrolidinium bis(trifluoromethylsulfonyl)imide,CCCC[N+]1(CCCC1)C.C(F)(F)(F)S(=O)(=O)[N-]S(=O)(=O)C(F)(F)F,C(C[N+]1(C)CCCC1)CC.FC(F)(S(=O)(=O)[N-]S(=O)(=O)C(F)(F)F)F,2,300,59,2
303.15,30.0,0.1176,Training,1-butyl-1-methyl-pyrrolidinium bis(trifluoromethylsulfonyl)imide,CCCC[N+]1(CCCC1)C.C(F)(F)(F)S(=O)(=O)[N-]S(=O)(=O)C(F)(F)F,C1C[N+](CCCC)(CC1)C.FC(F)(S([N-]S(C(F)(F)F)(=O)=O)(=O)=O)F,2,300,59,2
303.15,30.0,0.1176,Training,1-butyl-1-methyl-pyrrolidinium bis(trifluoromethylsulfonyl)imide,CCCC[N+]1(CCCC1)C.C(F)(F)(F)S(=O)(=O)[N-]S(=O)(=O)C(F)(F)F,C1C[N+](CCCC)(CC1)C.S(=O)(=O)(C(F)(F)F)[N-]S(C(F)(F)F)(=O)=O,2,300,59,2
303.15,30.0,0.1176,Training,1-butyl-1-methyl-pyrrolidinium bis(trifluoromethylsulfonyl)imide,CCCC[N+]1(CCCC1)C.C(F)(F)(F)S(=O)(=O)[N-]S(=O)(=O)C(F)(F)F,CCCC[N+]1(C)CCCC1.FC(S([N-]S(C(F)(F)F)(=O)=O)(=O)=O)(F)F,2,300,59,2
303.15,30.0,0.1176,Training,1-butyl-1-methyl-pyrrolidinium bis(trifluoromethylsulfonyl)imide,CCCC[N+]1(CCCC1)C.C(F)(F)(F)S(=O)(=O)[N-]S(=O)(=O)C(F)(F)F,C[N+]1(CCCC1)CCCC.O=S(=O)([N-]S(=O)(=O)C(F)(F)F)C(F)(F)F,2,300,59,2
303.15,30.0,0.1176,Training,1-butyl-1-methyl-pyrrolidinium bis(trifluoromethylsulfonyl)imide,CCCC[N+]1(CCCC1)C.C(F)(F)(F)S(=O)(=O)[N-]S(=O)(=O)C(F)(F)F,CCCC[N+]1(C)CCCC1.O=S([N-]S(=O)(C(F)(F)F)=O)(=O)C(F)(F)F,2,300,59,2
303.15,40.0,0.1212,Training,1-butyl-1-methyl-pyrrolidinium bis(trifluoromethylsulfonyl)imide,CCCC[N+]1(CCCC1)C.C(F)(F)(F)S(=O)(=O)[N-]S(=O)(=O)C(F)(F)F,CCCC[N+]1(C)CCCC1.O=S(=O)([N-]S(=O)(=O)C(F)(F)F)C(F)(F)F,2,400,60,2
303.15,40.0,0.1212,Training,1-butyl-1-methyl-pyrrolidinium bis(trifluoromethylsulfonyl)imide,CCCC[N+]1(CCCC1)C.C(F)(F)(F)S(=O)(=O)[N-]S(=O)(=O)C(F)(F)F,C1CC[N+](C)(C1)CCCC.S(C(F)(F)F)([N-]S(=O)(=O)C(F)(F)F)(=O)=O,2,400,60,2
303.15,40.0,0.1212,Training,1-butyl-1-methyl-pyrrolidinium bis(trifluoromethylsulfonyl)imide,CCCC[N+]1(CCCC1)C.C(F)(F)(F)S(=O)(=O)[N-]S(=O)(=O)C(F)(F)F,C(CCC)[N+]1(CCCC1)C.FC(S(=O)(=O)[N-]S(C(F)(F)F)(=O)=O)(F)F,2,400,60,2
303.15,40.0,0.1212,Training,1-butyl-1-methyl-pyrrolidinium bis(trifluoromethylsulfonyl)imide,CCCC[N+]1(CCCC1)C.C(F)(F)(F)S(=O)(=O)[N-]S(=O)(=O)C(F)(F)F,C1CC[N+](C1)(C)CCCC.FC(F)(F)S(=O)([N-]S(=O)(=O)C(F)(F)F)=O,2,400,60,2
303.15,40.0,0.1212,Training,1-butyl-1-methyl-pyrrolidinium bis(trifluoromethylsulfonyl)imide,CCCC[N+]1(CCCC1)C.C(F)(F)(F)S(=O)(=O)[N-]S(=O)(=O)C(F)(F)F,C(C)CC[N+]1(CCCC1)C.S(=O)([N-]S(C(F)(F)F)(=O)=O)(=O)C(F)(F)F,2,400,60,2
303.15,40.0,0.1212,Training,1-butyl-1-methyl-pyrrolidinium bis(trifluoromethylsulfonyl)imide,CCCC[N+]1(CCCC1)C.C(F)(F)(F)S(=O)(=O)[N-]S(=O)(=O)C(F)(F)F,CCCC[N+]1(CCCC1)C.FC(S(=O)(=O)[N-]S(=O)(C(F)(F)F)=O)(F)F,2,400,60,2
303.15,40.0,0.1212,Training,1-butyl-1-methyl-pyrrolidinium bis(trifluoromethylsulfonyl)imide,CCCC[N+]1(CCCC1)C.C(F)(F)(F)S(=O)(=O)[N-]S(=O)(=O)C(F)(F)F,C(CC)C[N+]1(C)CCCC1.FC(F)(F)S([N-]S(=O)(=O)C(F)(F)F)(=O)=O,2,400,60,2
303.15,40.0,0.1212,Training,1-butyl-1-methyl-pyrrolidinium bis(trifluoromethylsulfonyl)imide,CCCC[N+]1(CCCC1)C.C(F)(F)(F)S(=O)(=O)[N-]S(=O)(=O)C(F)(F)F,C(F)(F)(S(=O)([N-]S(=O)(=O)C(F)(F)F)=O)F.C1[N+](CCC1)(C)CCCC,2,400,60,2
303.15,40.0,0.1212,Training,1-butyl-1-methyl-pyrrolidinium bis(trifluoromethylsulfonyl)imide,CCCC[N+]1(CCCC1)C.C(F)(F)(F)S(=O)(=O)[N-]S(=O)(=O)C(F)(F)F,C([N+]1(CCCC1)C)CCC.O=S(C(F)(F)F)([N-]S(C(F)(F)F)(=O)=O)=O,2,400,60,2
303.15,40.0,0.1212,Training,1-butyl-1-methyl-pyrrolidinium bis(trifluoromethylsulfonyl)imide,CCCC[N+]1(CCCC1)C.C(F)(F)(F)S(=O)(=O)[N-]S(=O)(=O)C(F)(F)F,CCCC[N+]1(CCCC1)C.O=S([N-]S(=O)(=O)C(F)(F)F)(C(F)(F)F)=O,2,400,60,2
303.15,50.0,0.1216,Training,1-butyl-1-methyl-pyrrolidinium bis(trifluoromethylsulfonyl)imide,CCCC[N+]1(CCCC1)C.C(F)(F)(F)S(=O)(=O)[N-]S(=O)(=O)C(F)(F)F,CCCC[N+]1(C)CCCC1.O=S(=O)([N-]S(=O)(=O)C(F)(F)F)C(F)(F)F,2,500,61,2
303.15,50.0,0.1216,Training,1-butyl-1-methyl-pyrrolidinium bis(trifluoromethylsulfonyl)imide,CCCC[N+]1(CCCC1)C.C(F)(F)(F)S(=O)(=O)[N-]S(=O)(=O)C(F)(F)F,C(S(=O)([N-]S(C(F)(F)F)(=O)=O)=O)(F)(F)F.C1C[N+](CC1)(C)CCCC,2,500,61,2
303.15,50.0,0.1216,Training,1-butyl-1-methyl-pyrrolidinium bis(trifluoromethylsulfonyl)imide,CCCC[N+]1(CCCC1)C.C(F)(F)(F)S(=O)(=O)[N-]S(=O)(=O)C(F)(F)F,C1CC[N+](C1)(CCCC)C.[N-](S(=O)(C(F)(F)F)=O)S(=O)(=O)C(F)(F)F,2,500,61,2
303.15,50.0,0.1216,Training,1-butyl-1-methyl-pyrrolidinium bis(trifluoromethylsulfonyl)imide,CCCC[N+]1(CCCC1)C.C(F)(F)(F)S(=O)(=O)[N-]S(=O)(=O)C(F)(F)F,C(F)(F)(S(=O)(=O)[N-]S(=O)(C(F)(F)F)=O)F.C([N+]1(CCCC1)C)CCC,2,500,61,2
303.15,50.0,0.1216,Training,1-butyl-1-methyl-pyrrolidinium bis(trifluoromethylsulfonyl)imide,CCCC[N+]1(CCCC1)C.C(F)(F)(F)S(=O)(=O)[N-]S(=O)(=O)C(F)(F)F,C(CC)C[N+]1(C)CCCC1.O=S(C(F)(F)F)([N-]S(=O)(=O)C(F)(F)F)=O,2,500,61,2
303.15,50.0,0.1216,Training,1-butyl-1-methyl-pyrrolidinium bis(trifluoromethylsulfonyl)imide,CCCC[N+]1(CCCC1)C.C(F)(F)(F)S(=O)(=O)[N-]S(=O)(=O)C(F)(F)F,C1CCC[N+]1(CCCC)C.FC(F)(F)S([N-]S(C(F)(F)F)(=O)=O)(=O)=O,2,500,61,2
303.15,50.0,0.1216,Training,1-butyl-1-methyl-pyrrolidinium bis(trifluoromethylsulfonyl)imide,CCCC[N+]1(CCCC1)C.C(F)(F)(F)S(=O)(=O)[N-]S(=O)(=O)C(F)(F)F,C[N+]1(CCCC)CCCC1.S(=O)(C(F)(F)F)(=O)[N-]S(=O)(C(F)(F)F)=O,2,500,61,2
303.15,50.0,0.1216,Training,1-butyl-1-methyl-pyrrolidinium bis(trifluoromethylsulfonyl)imide,CCCC[N+]1(CCCC1)C.C(F)(F)(F)S(=O)(=O)[N-]S(=O)(=O)C(F)(F)F,CCCC[N+]1(CCCC1)C.O=S(=O)([N-]S(=O)(=O)C(F)(F)F)C(F)(F)F,2,500,61,2
303.15,50.0,0.1216,Training,1-butyl-1-methyl-pyrrolidinium bis(trifluoromethylsulfonyl)imide,CCCC[N+]1(CCCC1)C.C(F)(F)(F)S(=O)(=O)[N-]S(=O)(=O)C(F)(F)F,C1C[N+](CC1)(C)CCCC.O=S([N-]S(C(F)(F)F)(=O)=O)(=O)C(F)(F)F,2,500,61,2
303.15,50.0,0.1216,Training,1-butyl-1-methyl-pyrrolidinium bis(trifluoromethylsulfonyl)imide,CCCC[N+]1(CCCC1)C.C(F)(F)(F)S(=O)(=O)[N-]S(=O)(=O)C(F)(F)F,C(CC)C[N+]1(C)CCCC1.FC(F)(F)S(=O)(=O)[N-]S(C(F)(F)F)(=O)=O,2,500,61,2
303.15,60.0,0.1224,Training,1-butyl-1-methyl-pyrrolidinium bis(trifluoromethylsulfonyl)imide,CCCC[N+]1(CCCC1)C.C(F)(F)(F)S(=O)(=O)[N-]S(=O)(=O)C(F)(F)F,CCCC[N+]1(C)CCCC1.O=S(=O)([N-]S(=O)(=O)C(F)(F)F)C(F)(F)F,2,600,62,2
303.15,60.0,0.1224,Training,1-butyl-1-methyl-pyrrolidinium bis(trifluoromethylsulfonyl)imide,CCCC[N+]1(CCCC1)C.C(F)(F)(F)S(=O)(=O)[N-]S(=O)(=O)C(F)(F)F,C(CCC)[N+]1(C)CCCC1.[N-](S(=O)(C(F)(F)F)=O)S(=O)(C(F)(F)F)=O,2,600,62,2
303.15,60.0,0.1224,Training,1-butyl-1-methyl-pyrrolidinium bis(trifluoromethylsulfonyl)imide,CCCC[N+]1(CCCC1)C.C(F)(F)(F)S(=O)(=O)[N-]S(=O)(=O)C(F)(F)F,O=S(=O)([N-]S(=O)(=O)C(F)(F)F)C(F)(F)F.[N+]1(C)(CCCC)CCCC1,2,600,62,2
303.15,60.0,0.1224,Training,1-butyl-1-methyl-pyrrolidinium bis(trifluoromethylsulfonyl)imide,CCCC[N+]1(CCCC1)C.C(F)(F)(F)S(=O)(=O)[N-]S(=O)(=O)C(F)(F)F,C[N+]1(CCCC)CCCC1.FC(S(=O)(=O)[N-]S(C(F)(F)F)(=O)=O)(F)F,2,600,62,2
303.15,60.0,0.1224,Training,1-butyl-1-methyl-pyrrolidinium bis(trifluoromethylsulfonyl)imide,CCCC[N+]1(CCCC1)C.C(F)(F)(F)S(=O)(=O)[N-]S(=O)(=O)C(F)(F)F,CCCC[N+]1(CCCC1)C.O=S(=O)(C(F)(F)F)[N-]S(=O)(C(F)(F)F)=O,2,600,62,2
303.15,60.0,0.1224,Training,1-butyl-1-methyl-pyrrolidinium bis(trifluoromethylsulfonyl)imide,CCCC[N+]1(CCCC1)C.C(F)(F)(F)S(=O)(=O)[N-]S(=O)(=O)C(F)(F)F,O=S([N-]S(=O)(=O)C(F)(F)F)(=O)C(F)(F)F.[N+]1(CCCC1)(CCCC)C,2,600,62,2
303.15,60.0,0.1224,Training,1-butyl-1-methyl-pyrrolidinium bis(trifluoromethylsulfonyl)imide,CCCC[N+]1(CCCC1)C.C(F)(F)(F)S(=O)(=O)[N-]S(=O)(=O)C(F)(F)F,C[N+]1(CCCC1)CCCC.FC(F)(F)S(=O)(=O)[N-]S(=O)(=O)C(F)(F)F,2,600,62,2
303.15,60.0,0.1224,Training,1-butyl-1-methyl-pyrrolidinium bis(trifluoromethylsulfonyl)imide,CCCC[N+]1(CCCC1)C.C(F)(F)(F)S(=O)(=O)[N-]S(=O)(=O)C(F)(F)F,C[N+]1(CCCC)CCCC1.FC(F)(S([N-]S(=O)(=O)C(F)(F)F)(=O)=O)F,2,600,62,2
303.15,60.0,0.1224,Training,1-butyl-1-methyl-pyrrolidinium bis(trifluoromethylsulfonyl)imide,CCCC[N+]1(CCCC1)C.C(F)(F)(F)S(=O)(=O)[N-]S(=O)(=O)C(F)(F)F,C(CC[N+]1(C)CCCC1)C.S([N-]S(=O)(C(F)(F)F)=O)(=O)(=O)C(F)(F)F,2,600,62,2
303.15,60.0,0.1224,Training,1-butyl-1-methyl-pyrrolidinium bis(trifluoromethylsulfonyl)imide,CCCC[N+]1(CCCC1)C.C(F)(F)(F)S(=O)(=O)[N-]S(=O)(=O)C(F)(F)F,C(CC)C[N+]1(CCCC1)C.S(=O)(=O)(C(F)(F)F)[N-]S(=O)(C(F)(F)F)=O,2,600,62,2
303.15,65.0,0.125,Testing,1-butyl-1-methyl-pyrrolidinium bis(trifluoromethylsulfonyl)imide,CCCC[N+]1(CCCC1)C.C(F)(F)(F)S(=O)(=O)[N-]S(=O)(=O)C(F)(F)F,CCCC[N+]1(C)CCCC1.O=S(=O)([N-]S(=O)(=O)C(F)(F)F)C(F)(F)F,2,650,63,2
303.15,65.0,0.125,Testing,1-butyl-1-methyl-pyrrolidinium bis(trifluoromethylsulfonyl)imide,CCCC[N+]1(CCCC1)C.C(F)(F)(F)S(=O)(=O)[N-]S(=O)(=O)C(F)(F)F,C[N+]1(CCCC1)CCCC.[N-](S(=O)(C(F)(F)F)=O)S(=O)(=O)C(F)(F)F,2,650,63,2
303.15,65.0,0.125,Testing,1-butyl-1-methyl-pyrrolidinium bis(trifluoromethylsulfonyl)imide,CCCC[N+]1(CCCC1)C.C(F)(F)(F)S(=O)(=O)[N-]S(=O)(=O)C(F)(F)F,O=S([N-]S(=O)(=O)C(F)(F)F)(=O)C(F)(F)F.[N+]1(CCCC1)(CCCC)C,2,650,63,2
303.15,65.0,0.125,Testing,1-butyl-1-methyl-pyrrolidinium bis(trifluoromethylsulfonyl)imide,CCCC[N+]1(CCCC1)C.C(F)(F)(F)S(=O)(=O)[N-]S(=O)(=O)C(F)(F)F,C(CCC)[N+]1(CCCC1)C.FC(F)(F)S(=O)([N-]S(C(F)(F)F)(=O)=O)=O,2,650,63,2
303.15,65.0,0.125,Testing,1-butyl-1-methyl-pyrrolidinium bis(trifluoromethylsulfonyl)imide,CCCC[N+]1(CCCC1)C.C(F)(F)(F)S(=O)(=O)[N-]S(=O)(=O)C(F)(F)F,C1CC[N+](C1)(CCCC)C.FC(F)(S(=O)(=O)[N-]S(=O)(C(F)(F)F)=O)F,2,650,63,2
303.15,65.0,0.125,Testing,1-butyl-1-methyl-pyrrolidinium bis(trifluoromethylsulfonyl)imide,CCCC[N+]1(CCCC1)C.C(F)(F)(F)S(=O)(=O)[N-]S(=O)(=O)C(F)(F)F,C1C[N+](CC1)(CCCC)C.O=S([N-]S(=O)(C(F)(F)F)=O)(=O)C(F)(F)F,2,650,63,2
303.15,65.0,0.125,Testing,1-butyl-1-methyl-pyrrolidinium bis(trifluoromethylsulfonyl)imide,CCCC[N+]1(CCCC1)C.C(F)(F)(F)S(=O)(=O)[N-]S(=O)(=O)C(F)(F)F,C(CC)C[N+]1(CCCC1)C.FC(F)(S([N-]S(=O)(=O)C(F)(F)F)(=O)=O)F,2,650,63,2