T/K,P/MPa,TC/W m-1 K-1,Data type,Name,SMILES,Normalized SMILES,index,P/bar,RANDOM,IL
313.15,65.0,0.1198,Testing,1-butyl-1-methyl-piperidinium bis(trifluoromethylsulfonyl)imide,CCCC[N+]1(CCCCC1)C.C(F)(F)(F)S(=O)(=O)[N-]S(=O)(=O)C(F)(F)F,C1C[N+](CCC1)(C)CCCC.FC(S(=O)(=O)[N-]S(C(F)(F)F)(=O)=O)(F)F,1,650,36,1
313.15,65.0,0.1198,Testing,1-butyl-1-methyl-piperidinium bis(trifluoromethylsulfonyl)imide,CCCC[N+]1(CCCCC1)C.C(F)(F)(F)S(=O)(=O)[N-]S(=O)(=O)C(F)(F)F,C(F)(F)(S(=O)(=O)[N-]S(=O)(C(F)(F)F)=O)F.CCCC[N+]1(CCCCC1)C,1,650,36,1
313.15,65.0,0.1198,Testing,1-butyl-1-methyl-piperidinium bis(trifluoromethylsulfonyl)imide,CCCC[N+]1(CCCCC1)C.C(F)(F)(F)S(=O)(=O)[N-]S(=O)(=O)C(F)(F)F,CCCC[N+]1(C)CCCCC1.FC(F)(S(=O)(=O)[N-]S(C(F)(F)F)(=O)=O)F,1,650,36,1
313.15,65.0,0.1198,Testing,1-butyl-1-methyl-piperidinium bis(trifluoromethylsulfonyl)imide,CCCC[N+]1(CCCCC1)C.C(F)(F)(F)S(=O)(=O)[N-]S(=O)(=O)C(F)(F)F,C1CCCC[N+]1(CCCC)C.FC(F)(S(=O)(=O)[N-]S(=O)(=O)C(F)(F)F)F,1,650,36,1
283.15,0.1,0.1132,Testing,1-butyl-1-methyl-pyrrolidinium bis(trifluoromethylsulfonyl)imide,CCCC[N+]1(CCCC1)C.C(F)(F)(F)S(=O)(=O)[N-]S(=O)(=O)C(F)(F)F,CCCC[N+]1(C)CCCC1.O=S(=O)([N-]S(=O)(=O)C(F)(F)F)C(F)(F)F,2,1,37,2
283.15,0.1,0.1132,Testing,1-butyl-1-methyl-pyrrolidinium bis(trifluoromethylsulfonyl)imide,CCCC[N+]1(CCCC1)C.C(F)(F)(F)S(=O)(=O)[N-]S(=O)(=O)C(F)(F)F,C(C)CC[N+]1(C)CCCC1.FC(F)(F)S([N-]S(C(F)(F)F)(=O)=O)(=O)=O,2,1,37,2
283.15,0.1,0.1132,Testing,1-butyl-1-methyl-pyrrolidinium bis(trifluoromethylsulfonyl)imide,CCCC[N+]1(CCCC1)C.C(F)(F)(F)S(=O)(=O)[N-]S(=O)(=O)C(F)(F)F,C1C[N+](CCCC)(CC1)C.FC(S([N-]S(=O)(C(F)(F)F)=O)(=O)=O)(F)F,2,1,37,2
283.15,0.1,0.1132,Testing,1-butyl-1-methyl-pyrrolidinium bis(trifluoromethylsulfonyl)imide,CCCC[N+]1(CCCC1)C.C(F)(F)(F)S(=O)(=O)[N-]S(=O)(=O)C(F)(F)F,CCCC[N+]1(CCCC1)C.O=S(=O)(C(F)(F)F)[N-]S(C(F)(F)F)(=O)=O,2,1,37,2
283.15,0.1,0.1132,Testing,1-butyl-1-methyl-pyrrolidinium bis(trifluoromethylsulfonyl)imide,CCCC[N+]1(CCCC1)C.C(F)(F)(F)S(=O)(=O)[N-]S(=O)(=O)C(F)(F)F,C([N+]1(CCCC1)C)CCC.FC(S(=O)([N-]S(=O)(=O)C(F)(F)F)=O)(F)F,2,1,37,2
283.15,0.1,0.1132,Testing,1-butyl-1-methyl-pyrrolidinium bis(trifluoromethylsulfonyl)imide,CCCC[N+]1(CCCC1)C.C(F)(F)(F)S(=O)(=O)[N-]S(=O)(=O)C(F)(F)F,C(CC[N+]1(C)CCCC1)C.C(F)(S(=O)(=O)[N-]S(=O)(=O)C(F)(F)F)(F)F,2,1,37,2
283.15,0.1,0.1132,Testing,1-butyl-1-methyl-pyrrolidinium bis(trifluoromethylsulfonyl)imide,CCCC[N+]1(CCCC1)C.C(F)(F)(F)S(=O)(=O)[N-]S(=O)(=O)C(F)(F)F,C1CC[N+](C1)(CCCC)C.FC(F)(S(=O)([N-]S(=O)(C(F)(F)F)=O)=O)F,2,1,37,2
283.15,0.1,0.1132,Testing,1-butyl-1-methyl-pyrrolidinium bis(trifluoromethylsulfonyl)imide,CCCC[N+]1(CCCC1)C.C(F)(F)(F)S(=O)(=O)[N-]S(=O)(=O)C(F)(F)F,C(F)(S([N-]S(=O)(=O)C(F)(F)F)(=O)=O)(F)F.C1CCC[N+]1(C)CCCC,2,1,37,2
283.15,0.1,0.1132,Testing,1-butyl-1-methyl-pyrrolidinium bis(trifluoromethylsulfonyl)imide,CCCC[N+]1(CCCC1)C.C(F)(F)(F)S(=O)(=O)[N-]S(=O)(=O)C(F)(F)F,C1CCC[N+]1(CCCC)C.O=S([N-]S(=O)(=O)C(F)(F)F)(C(F)(F)F)=O,2,1,37,2
283.15,0.1,0.1132,Testing,1-butyl-1-methyl-pyrrolidinium bis(trifluoromethylsulfonyl)imide,CCCC[N+]1(CCCC1)C.C(F)(F)(F)S(=O)(=O)[N-]S(=O)(=O)C(F)(F)F,FC(F)(S(=O)(=O)[N-]S(=O)(=O)C(F)(F)F)F.[N+]1(C)(CCCC1)CCCC,2,1,37,2
283.15,5.0,0.1165,Training,1-butyl-1-methyl-pyrrolidinium bis(trifluoromethylsulfonyl)imide,CCCC[N+]1(CCCC1)C.C(F)(F)(F)S(=O)(=O)[N-]S(=O)(=O)C(F)(F)F,CCCC[N+]1(C)CCCC1.O=S(=O)([N-]S(=O)(=O)C(F)(F)F)C(F)(F)F,2,50,38,2
283.15,5.0,0.1165,Training,1-butyl-1-methyl-pyrrolidinium bis(trifluoromethylsulfonyl)imide,CCCC[N+]1(CCCC1)C.C(F)(F)(F)S(=O)(=O)[N-]S(=O)(=O)C(F)(F)F,C(CC[N+]1(CCCC1)C)C.FC(S([N-]S(=O)(C(F)(F)F)=O)(=O)=O)(F)F,2,50,38,2
283.15,5.0,0.1165,Training,1-butyl-1-methyl-pyrrolidinium bis(trifluoromethylsulfonyl)imide,CCCC[N+]1(CCCC1)C.C(F)(F)(F)S(=O)(=O)[N-]S(=O)(=O)C(F)(F)F,C1CC[N+](C1)(CCCC)C.S(=O)(=O)(C(F)(F)F)[N-]S(=O)(C(F)(F)F)=O,2,50,38,2
283.15,5.0,0.1165,Training,1-butyl-1-methyl-pyrrolidinium bis(trifluoromethylsulfonyl)imide,CCCC[N+]1(CCCC1)C.C(F)(F)(F)S(=O)(=O)[N-]S(=O)(=O)C(F)(F)F,CCCC[N+]1(C)CCCC1.O=S([N-]S(C(F)(F)F)(=O)=O)(C(F)(F)F)=O,2,50,38,2
283.15,5.0,0.1165,Training,1-butyl-1-methyl-pyrrolidinium bis(trifluoromethylsulfonyl)imide,CCCC[N+]1(CCCC1)C.C(F)(F)(F)S(=O)(=O)[N-]S(=O)(=O)C(F)(F)F,C(F)(F)(S([N-]S(=O)(C(F)(F)F)=O)(=O)=O)F.C1CCC[N+]1(C)CCCC,2,50,38,2
283.15,5.0,0.1165,Training,1-butyl-1-methyl-pyrrolidinium bis(trifluoromethylsulfonyl)imide,CCCC[N+]1(CCCC1)C.C(F)(F)(F)S(=O)(=O)[N-]S(=O)(=O)C(F)(F)F,C(CC[N+]1(CCCC1)C)C.FC(F)(S(=O)(=O)[N-]S(=O)(C(F)(F)F)=O)F,2,50,38,2
283.15,5.0,0.1165,Training,1-butyl-1-methyl-pyrrolidinium bis(trifluoromethylsulfonyl)imide,CCCC[N+]1(CCCC1)C.C(F)(F)(F)S(=O)(=O)[N-]S(=O)(=O)C(F)(F)F,C(F)(F)(F)S([N-]S(=O)(=O)C(F)(F)F)(=O)=O.C([N+]1(C)CCCC1)CCC,2,50,38,2
283.15,5.0,0.1165,Training,1-butyl-1-methyl-pyrrolidinium bis(trifluoromethylsulfonyl)imide,CCCC[N+]1(CCCC1)C.C(F)(F)(F)S(=O)(=O)[N-]S(=O)(=O)C(F)(F)F,C(F)(S(=O)(=O)[N-]S(=O)(=O)C(F)(F)F)(F)F.C([N+]1(CCCC1)C)CCC,2,50,38,2
283.15,5.0,0.1165,Training,1-butyl-1-methyl-pyrrolidinium bis(trifluoromethylsulfonyl)imide,CCCC[N+]1(CCCC1)C.C(F)(F)(F)S(=O)(=O)[N-]S(=O)(=O)C(F)(F)F,CCCC[N+]1(C)CCCC1.S(C(F)(F)F)(=O)([N-]S(=O)(=O)C(F)(F)F)=O,2,50,38,2
283.15,5.0,0.1165,Training,1-butyl-1-methyl-pyrrolidinium bis(trifluoromethylsulfonyl)imide,CCCC[N+]1(CCCC1)C.C(F)(F)(F)S(=O)(=O)[N-]S(=O)(=O)C(F)(F)F,C1CC[N+](C1)(C)CCCC.FC(F)(S(=O)([N-]S(=O)(=O)C(F)(F)F)=O)F,2,50,38,2
283.15,10.0,0.1175,Training,1-butyl-1-methyl-pyrrolidinium bis(trifluoromethylsulfonyl)imide,CCCC[N+]1(CCCC1)C.C(F)(F)(F)S(=O)(=O)[N-]S(=O)(=O)C(F)(F)F,CCCC[N+]1(C)CCCC1.O=S(=O)([N-]S(=O)(=O)C(F)(F)F)C(F)(F)F,2,100,39,2
283.15,10.0,0.1175,Training,1-butyl-1-methyl-pyrrolidinium bis(trifluoromethylsulfonyl)imide,CCCC[N+]1(CCCC1)C.C(F)(F)(F)S(=O)(=O)[N-]S(=O)(=O)C(F)(F)F,C(C)CC[N+]1(C)CCCC1.O=S(C(F)(F)F)([N-]S(C(F)(F)F)(=O)=O)=O,2,100,39,2
283.15,10.0,0.1175,Training,1-butyl-1-methyl-pyrrolidinium bis(trifluoromethylsulfonyl)imide,CCCC[N+]1(CCCC1)C.C(F)(F)(F)S(=O)(=O)[N-]S(=O)(=O)C(F)(F)F,C1C[N+](CC1)(CCCC)C.FC(S(=O)([N-]S(=O)(C(F)(F)F)=O)=O)(F)F,2,100,39,2
283.15,10.0,0.1175,Training,1-butyl-1-methyl-pyrrolidinium bis(trifluoromethylsulfonyl)imide,CCCC[N+]1(CCCC1)C.C(F)(F)(F)S(=O)(=O)[N-]S(=O)(=O)C(F)(F)F,C[N+]1(CCCC)CCCC1.FC(S([N-]S(C(F)(F)F)(=O)=O)(=O)=O)(F)F,2,100,39,2
283.15,10.0,0.1175,Training,1-butyl-1-methyl-pyrrolidinium bis(trifluoromethylsulfonyl)imide,CCCC[N+]1(CCCC1)C.C(F)(F)(F)S(=O)(=O)[N-]S(=O)(=O)C(F)(F)F,CCCC[N+]1(CCCC1)C.S(=O)([N-]S(C(F)(F)F)(=O)=O)(=O)C(F)(F)F,2,100,39,2
283.15,10.0,0.1175,Training,1-butyl-1-methyl-pyrrolidinium bis(trifluoromethylsulfonyl)imide,CCCC[N+]1(CCCC1)C.C(F)(F)(F)S(=O)(=O)[N-]S(=O)(=O)C(F)(F)F,C([N+]1(CCCC1)C)CCC.S(C(F)(F)F)([N-]S(=O)(=O)C(F)(F)F)(=O)=O,2,100,39,2
283.15,10.0,0.1175,Training,1-butyl-1-methyl-pyrrolidinium bis(trifluoromethylsulfonyl)imide,CCCC[N+]1(CCCC1)C.C(F)(F)(F)S(=O)(=O)[N-]S(=O)(=O)C(F)(F)F,C1C[N+](CCCC)(C)CC1.FC(F)(F)S([N-]S(=O)(=O)C(F)(F)F)(=O)=O,2,100,39,2
283.15,10.0,0.1175,Training,1-butyl-1-methyl-pyrrolidinium bis(trifluoromethylsulfonyl)imide,CCCC[N+]1(CCCC1)C.C(F)(F)(F)S(=O)(=O)[N-]S(=O)(=O)C(F)(F)F,C(C[N+]1(C)CCCC1)CC.S(=O)([N-]S(=O)(=O)C(F)(F)F)(=O)C(F)(F)F,2,100,39,2
283.15,10.0,0.1175,Training,1-butyl-1-methyl-pyrrolidinium bis(trifluoromethylsulfonyl)imide,CCCC[N+]1(CCCC1)C.C(F)(F)(F)S(=O)(=O)[N-]S(=O)(=O)C(F)(F)F,CCCC[N+]1(CCCC1)C.FC(S(=O)([N-]S(C(F)(F)F)(=O)=O)=O)(F)F,2,100,39,2
283.15,10.0,0.1175,Training,1-butyl-1-methyl-pyrrolidinium bis(trifluoromethylsulfonyl)imide,CCCC[N+]1(CCCC1)C.C(F)(F)(F)S(=O)(=O)[N-]S(=O)(=O)C(F)(F)F,C(S(=O)(=O)[N-]S(=O)(C(F)(F)F)=O)(F)(F)F.[N+]1(CCCC)(CCCC1)C,2,100,39,2
283.15,20.0,0.1202,Training,1-butyl-1-methyl-pyrrolidinium bis(trifluoromethylsulfonyl)imide,CCCC[N+]1(CCCC1)C.C(F)(F)(F)S(=O)(=O)[N-]S(=O)(=O)C(F)(F)F,CCCC[N+]1(C)CCCC1.O=S(=O)([N-]S(=O)(=O)C(F)(F)F)C(F)(F)F,2,200,40,2
283.15,20.0,0.1202,Training,1-butyl-1-methyl-pyrrolidinium bis(trifluoromethylsulfonyl)imide,CCCC[N+]1(CCCC1)C.C(F)(F)(F)S(=O)(=O)[N-]S(=O)(=O)C(F)(F)F,CCCC[N+]1(C)CCCC1.O=S(=O)(C(F)(F)F)[N-]S(=O)(=O)C(F)(F)F,2,200,40,2
283.15,20.0,0.1202,Training,1-butyl-1-methyl-pyrrolidinium bis(trifluoromethylsulfonyl)imide,CCCC[N+]1(CCCC1)C.C(F)(F)(F)S(=O)(=O)[N-]S(=O)(=O)C(F)(F)F,C1CC[N+](C1)(C)CCCC.O=S([N-]S(C(F)(F)F)(=O)=O)(=O)C(F)(F)F,2,200,40,2
283.15,20.0,0.1202,Training,1-butyl-1-methyl-pyrrolidinium bis(trifluoromethylsulfonyl)imide,CCCC[N+]1(CCCC1)C.C(F)(F)(F)S(=O)(=O)[N-]S(=O)(=O)C(F)(F)F,CCCC[N+]1(CCCC1)C.[N-](S(=O)(C(F)(F)F)=O)S(=O)(=O)C(F)(F)F,2,200,40,2
283.15,20.0,0.1202,Training,1-butyl-1-methyl-pyrrolidinium bis(trifluoromethylsulfonyl)imide,CCCC[N+]1(CCCC1)C.C(F)(F)(F)S(=O)(=O)[N-]S(=O)(=O)C(F)(F)F,C(CCC)[N+]1(C)CCCC1.FC(F)(S(=O)([N-]S(=O)(=O)C(F)(F)F)=O)F,2,200,40,2
283.15,20.0,0.1202,Training,1-butyl-1-methyl-pyrrolidinium bis(trifluoromethylsulfonyl)imide,CCCC[N+]1(CCCC1)C.C(F)(F)(F)S(=O)(=O)[N-]S(=O)(=O)C(F)(F)F,C1CCC[N+]1(CCCC)C.FC(S([N-]S(C(F)(F)F)(=O)=O)(=O)=O)(F)F,2,200,40,2
283.15,20.0,0.1202,Training,1-butyl-1-methyl-pyrrolidinium bis(trifluoromethylsulfonyl)imide,CCCC[N+]1(CCCC1)C.C(F)(F)(F)S(=O)(=O)[N-]S(=O)(=O)C(F)(F)F,C(CCC)[N+]1(CCCC1)C.FC(F)(S([N-]S(C(F)(F)F)(=O)=O)(=O)=O)F,2,200,40,2
283.15,20.0,0.1202,Training,1-butyl-1-methyl-pyrrolidinium bis(trifluoromethylsulfonyl)imide,CCCC[N+]1(CCCC1)C.C(F)(F)(F)S(=O)(=O)[N-]S(=O)(=O)C(F)(F)F,C(CC[N+]1(CCCC1)C)C.FC(S([N-]S(=O)(=O)C(F)(F)F)(=O)=O)(F)F,2,200,40,2
283.15,20.0,0.1202,Training,1-butyl-1-methyl-pyrrolidinium bis(trifluoromethylsulfonyl)imide,CCCC[N+]1(CCCC1)C.C(F)(F)(F)S(=O)(=O)[N-]S(=O)(=O)C(F)(F)F,C([N+]1(CCCC1)C)CCC.FC(F)(S([N-]S(C(F)(F)F)(=O)=O)(=O)=O)F,2,200,40,2
283.15,20.0,0.1202,Training,1-butyl-1-methyl-pyrrolidinium bis(trifluoromethylsulfonyl)imide,CCCC[N+]1(CCCC1)C.C(F)(F)(F)S(=O)(=O)[N-]S(=O)(=O)C(F)(F)F,C1CC[N+](C)(C1)CCCC.[N-](S(=O)(=O)C(F)(F)F)S(C(F)(F)F)(=O)=O,2,200,40,2
283.15,30.0,0.1212,Training,1-butyl-1-methyl-pyrrolidinium bis(trifluoromethylsulfonyl)imide,CCCC[N+]1(CCCC1)C.C(F)(F)(F)S(=O)(=O)[N-]S(=O)(=O)C(F)(F)F,CCCC[N+]1(C)CCCC1.O=S(=O)([N-]S(=O)(=O)C(F)(F)F)C(F)(F)F,2,300,41,2
283.15,30.0,0.1212,Training,1-butyl-1-methyl-pyrrolidinium bis(trifluoromethylsulfonyl)imide,CCCC[N+]1(CCCC1)C.C(F)(F)(F)S(=O)(=O)[N-]S(=O)(=O)C(F)(F)F,C(CC[N+]1(C)CCCC1)C.FC(F)(S(=O)([N-]S(C(F)(F)F)(=O)=O)=O)F,2,300,41,2
283.15,30.0,0.1212,Training,1-butyl-1-methyl-pyrrolidinium bis(trifluoromethylsulfonyl)imide,CCCC[N+]1(CCCC1)C.C(F)(F)(F)S(=O)(=O)[N-]S(=O)(=O)C(F)(F)F,O=S(=O)([N-]S(C(F)(F)F)(=O)=O)C(F)(F)F.[N+]1(CCCC)(CCCC1)C,2,300,41,2
283.15,30.0,0.1212,Training,1-butyl-1-methyl-pyrrolidinium bis(trifluoromethylsulfonyl)imide,CCCC[N+]1(CCCC1)C.C(F)(F)(F)S(=O)(=O)[N-]S(=O)(=O)C(F)(F)F,C1[N+](CCC1)(C)CCCC.FC(F)(S([N-]S(=O)(C(F)(F)F)=O)(=O)=O)F,2,300,41,2
283.15,30.0,0.1212,Training,1-butyl-1-methyl-pyrrolidinium bis(trifluoromethylsulfonyl)imide,CCCC[N+]1(CCCC1)C.C(F)(F)(F)S(=O)(=O)[N-]S(=O)(=O)C(F)(F)F,CCCC[N+]1(CCCC1)C.O=S(C(F)(F)F)([N-]S(C(F)(F)F)(=O)=O)=O,2,300,41,2
283.15,30.0,0.1212,Training,1-butyl-1-methyl-pyrrolidinium bis(trifluoromethylsulfonyl)imide,CCCC[N+]1(CCCC1)C.C(F)(F)(F)S(=O)(=O)[N-]S(=O)(=O)C(F)(F)F,C1[N+](CCC1)(CCCC)C.FC(S([N-]S(C(F)(F)F)(=O)=O)(=O)=O)(F)F,2,300,41,2
283.15,30.0,0.1212,Training,1-butyl-1-methyl-pyrrolidinium bis(trifluoromethylsulfonyl)imide,CCCC[N+]1(CCCC1)C.C(F)(F)(F)S(=O)(=O)[N-]S(=O)(=O)C(F)(F)F,C(C[N+]1(CCCC1)C)CC.S(C(F)(F)F)([N-]S(=O)(=O)C(F)(F)F)(=O)=O,2,300,41,2
283.15,30.0,0.1212,Training,1-butyl-1-methyl-pyrrolidinium bis(trifluoromethylsulfonyl)imide,CCCC[N+]1(CCCC1)C.C(F)(F)(F)S(=O)(=O)[N-]S(=O)(=O)C(F)(F)F,C1[N+](C)(CCCC)CCC1.[N-](S(C(F)(F)F)(=O)=O)S(C(F)(F)F)(=O)=O,2,300,41,2
283.15,30.0,0.1212,Training,1-butyl-1-methyl-pyrrolidinium bis(trifluoromethylsulfonyl)imide,CCCC[N+]1(CCCC1)C.C(F)(F)(F)S(=O)(=O)[N-]S(=O)(=O)C(F)(F)F,C(CC)C[N+]1(C)CCCC1.[N-](S(=O)(=O)C(F)(F)F)S(=O)(=O)C(F)(F)F,2,300,41,2
283.15,30.0,0.1212,Training,1-butyl-1-methyl-pyrrolidinium bis(trifluoromethylsulfonyl)imide,CCCC[N+]1(CCCC1)C.C(F)(F)(F)S(=O)(=O)[N-]S(=O)(=O)C(F)(F)F,C([N+]1(C)CCCC1)CCC.FC(F)(F)S(=O)([N-]S(C(F)(F)F)(=O)=O)=O,2,300,41,2
283.15,40.0,0.1212,Training,1-butyl-1-methyl-pyrrolidinium bis(trifluoromethylsulfonyl)imide,CCCC[N+]1(CCCC1)C.C(F)(F)(F)S(=O)(=O)[N-]S(=O)(=O)C(F)(F)F,CCCC[N+]1(C)CCCC1.O=S(=O)([N-]S(=O)(=O)C(F)(F)F)C(F)(F)F,2,400,42,2
283.15,40.0,0.1212,Training,1-butyl-1-methyl-pyrrolidinium bis(trifluoromethylsulfonyl)imide,CCCC[N+]1(CCCC1)C.C(F)(F)(F)S(=O)(=O)[N-]S(=O)(=O)C(F)(F)F,C[N+]1(CCCC)CCCC1.FC(S([N-]S(=O)(C(F)(F)F)=O)(=O)=O)(F)F,2,400,42,2
283.15,40.0,0.1212,Training,1-butyl-1-methyl-pyrrolidinium bis(trifluoromethylsulfonyl)imide,CCCC[N+]1(CCCC1)C.C(F)(F)(F)S(=O)(=O)[N-]S(=O)(=O)C(F)(F)F,CCCC[N+]1(CCCC1)C.[N-](S(=O)(=O)C(F)(F)F)S(=O)(=O)C(F)(F)F,2,400,42,2
283.15,40.0,0.1212,Training,1-butyl-1-methyl-pyrrolidinium bis(trifluoromethylsulfonyl)imide,CCCC[N+]1(CCCC1)C.C(F)(F)(F)S(=O)(=O)[N-]S(=O)(=O)C(F)(F)F,C[N+]1(CCCC)CCCC1.O=S([N-]S(C(F)(F)F)(=O)=O)(=O)C(F)(F)F,2,400,42,2
283.15,40.0,0.1212,Training,1-butyl-1-methyl-pyrrolidinium bis(trifluoromethylsulfonyl)imide,CCCC[N+]1(CCCC1)C.C(F)(F)(F)S(=O)(=O)[N-]S(=O)(=O)C(F)(F)F,C1[N+](CCC1)(CCCC)C.FC(S([N-]S(=O)(=O)C(F)(F)F)(=O)=O)(F)F,2,400,42,2
283.15,40.0,0.1212,Training,1-butyl-1-methyl-pyrrolidinium bis(trifluoromethylsulfonyl)imide,CCCC[N+]1(CCCC1)C.C(F)(F)(F)S(=O)(=O)[N-]S(=O)(=O)C(F)(F)F,C[N+]1(CCCC1)CCCC.FC(S(=O)([N-]S(=O)(=O)C(F)(F)F)=O)(F)F,2,400,42,2
283.15,40.0,0.1212,Training,1-butyl-1-methyl-pyrrolidinium bis(trifluoromethylsulfonyl)imide,CCCC[N+]1(CCCC1)C.C(F)(F)(F)S(=O)(=O)[N-]S(=O)(=O)C(F)(F)F,C(C[N+]1(CCCC1)C)CC.FC(F)(S(=O)(=O)[N-]S(=O)(C(F)(F)F)=O)F,2,400,42,2
283.15,40.0,0.1212,Training,1-butyl-1-methyl-pyrrolidinium bis(trifluoromethylsulfonyl)imide,CCCC[N+]1(CCCC1)C.C(F)(F)(F)S(=O)(=O)[N-]S(=O)(=O)C(F)(F)F,C(S([N-]S(=O)(=O)C(F)(F)F)(=O)=O)(F)(F)F.C([N+]1(CCCC1)C)CCC,2,400,42,2
283.15,40.0,0.1212,Training,1-butyl-1-methyl-pyrrolidinium bis(trifluoromethylsulfonyl)imide,CCCC[N+]1(CCCC1)C.C(F)(F)(F)S(=O)(=O)[N-]S(=O)(=O)C(F)(F)F,CCCC[N+]1(C)CCCC1.S(=O)(=O)(C(F)(F)F)[N-]S(=O)(=O)C(F)(F)F,2,400,42,2
283.15,40.0,0.1212,Training,1-butyl-1-methyl-pyrrolidinium bis(trifluoromethylsulfonyl)imide,CCCC[N+]1(CCCC1)C.C(F)(F)(F)S(=O)(=O)[N-]S(=O)(=O)C(F)(F)F,C(CC)C[N+]1(C)CCCC1.FC(S([N-]S(=O)(C(F)(F)F)=O)(=O)=O)(F)F,2,400,42,2
283.15,50.0,0.1238,Training,1-butyl-1-methyl-pyrrolidinium bis(trifluoromethylsulfonyl)imide,CCCC[N+]1(CCCC1)C.C(F)(F)(F)S(=O)(=O)[N-]S(=O)(=O)C(F)(F)F,CCCC[N+]1(C)CCCC1.O=S(=O)([N-]S(=O)(=O)C(F)(F)F)C(F)(F)F,2,500,43,2
283.15,50.0,0.1238,Training,1-butyl-1-methyl-pyrrolidinium bis(trifluoromethylsulfonyl)imide,CCCC[N+]1(CCCC1)C.C(F)(F)(F)S(=O)(=O)[N-]S(=O)(=O)C(F)(F)F,C1[N+](CCCC)(C)CCC1.FC(F)(S([N-]S(=O)(=O)C(F)(F)F)(=O)=O)F,2,500,43,2
283.15,50.0,0.1238,Training,1-butyl-1-methyl-pyrrolidinium bis(trifluoromethylsulfonyl)imide,CCCC[N+]1(CCCC1)C.C(F)(F)(F)S(=O)(=O)[N-]S(=O)(=O)C(F)(F)F,C(F)(F)(F)S([N-]S(=O)(C(F)(F)F)=O)(=O)=O.[N+]1(CCCC1)(CCCC)C,2,500,43,2
283.15,50.0,0.1238,Training,1-butyl-1-methyl-pyrrolidinium bis(trifluoromethylsulfonyl)imide,CCCC[N+]1(CCCC1)C.C(F)(F)(F)S(=O)(=O)[N-]S(=O)(=O)C(F)(F)F,O=S(C(F)(F)F)(=O)[N-]S(=O)(=O)C(F)(F)F.[N+]1(CCCC1)(C)CCCC,2,500,43,2
283.15,50.0,0.1238,Training,1-butyl-1-methyl-pyrrolidinium bis(trifluoromethylsulfonyl)imide,CCCC[N+]1(CCCC1)C.C(F)(F)(F)S(=O)(=O)[N-]S(=O)(=O)C(F)(F)F,C(C[N+]1(C)CCCC1)CC.[N-](S(=O)(=O)C(F)(F)F)S(=O)(=O)C(F)(F)F,2,500,43,2
283.15,50.0,0.1238,Training,1-butyl-1-methyl-pyrrolidinium bis(trifluoromethylsulfonyl)imide,CCCC[N+]1(CCCC1)C.C(F)(F)(F)S(=O)(=O)[N-]S(=O)(=O)C(F)(F)F,C(S([N-]S(C(F)(F)F)(=O)=O)(=O)=O)(F)(F)F.C1CCC[N+]1(C)CCCC,2,500,43,2
283.15,50.0,0.1238,Training,1-butyl-1-methyl-pyrrolidinium bis(trifluoromethylsulfonyl)imide,CCCC[N+]1(CCCC1)C.C(F)(F)(F)S(=O)(=O)[N-]S(=O)(=O)C(F)(F)F,C(C)CC[N+]1(CCCC1)C.O=S([N-]S(C(F)(F)F)(=O)=O)(C(F)(F)F)=O,2,500,43,2
283.15,50.0,0.1238,Training,1-butyl-1-methyl-pyrrolidinium bis(trifluoromethylsulfonyl)imide,CCCC[N+]1(CCCC1)C.C(F)(F)(F)S(=O)(=O)[N-]S(=O)(=O)C(F)(F)F,C(C)CC[N+]1(C)CCCC1.O=S([N-]S(C(F)(F)F)(=O)=O)(C(F)(F)F)=O,2,500,43,2
283.15,50.0,0.1238,Training,1-butyl-1-methyl-pyrrolidinium bis(trifluoromethylsulfonyl)imide,CCCC[N+]1(CCCC1)C.C(F)(F)(F)S(=O)(=O)[N-]S(=O)(=O)C(F)(F)F,C1[N+](CCCC)(C)CCC1.FC(F)(S(=O)([N-]S(=O)(C(F)(F)F)=O)=O)F,2,500,43,2
283.15,50.0,0.1238,Training,1-butyl-1-methyl-pyrrolidinium bis(trifluoromethylsulfonyl)imide,CCCC[N+]1(CCCC1)C.C(F)(F)(F)S(=O)(=O)[N-]S(=O)(=O)C(F)(F)F,C(C)CC[N+]1(CCCC1)C.[N-](S(C(F)(F)F)(=O)=O)S(=O)(C(F)(F)F)=O,2,500,43,2
283.15,60.0,0.1257,Training,1-butyl-1-methyl-pyrrolidinium bis(trifluoromethylsulfonyl)imide,CCCC[N+]1(CCCC1)C.C(F)(F)(F)S(=O)(=O)[N-]S(=O)(=O)C(F)(F)F,CCCC[N+]1(C)CCCC1.O=S(=O)([N-]S(=O)(=O)C(F)(F)F)C(F)(F)F,2,600,44,2
283.15,60.0,0.1257,Training,1-butyl-1-methyl-pyrrolidinium bis(trifluoromethylsulfonyl)imide,CCCC[N+]1(CCCC1)C.C(F)(F)(F)S(=O)(=O)[N-]S(=O)(=O)C(F)(F)F,FC(S(=O)([N-]S(=O)(C(F)(F)F)=O)=O)(F)F.[N+]1(CCCC1)(CCCC)C,2,600,44,2
283.15,60.0,0.1257,Training,1-butyl-1-methyl-pyrrolidinium bis(trifluoromethylsulfonyl)imide,CCCC[N+]1(CCCC1)C.C(F)(F)(F)S(=O)(=O)[N-]S(=O)(=O)C(F)(F)F,C(CCC)[N+]1(CCCC1)C.O=S(C(F)(F)F)([N-]S(=O)(=O)C(F)(F)F)=O,2,600,44,2
283.15,60.0,0.1257,Training,1-butyl-1-methyl-pyrrolidinium bis(trifluoromethylsulfonyl)imide,CCCC[N+]1(CCCC1)C.C(F)(F)(F)S(=O)(=O)[N-]S(=O)(=O)C(F)(F)F,C(CC)C[N+]1(C)CCCC1.FC(S([N-]S(C(F)(F)F)(=O)=O)(=O)=O)(F)F,2,600,44,2
283.15,60.0,0.1257,Training,1-butyl-1-methyl-pyrrolidinium bis(trifluoromethylsulfonyl)imide,CCCC[N+]1(CCCC1)C.C(F)(F)(F)S(=O)(=O)[N-]S(=O)(=O)C(F)(F)F,C1[N+](CCCC)(CCC1)C.FC(S(=O)(=O)[N-]S(=O)(=O)C(F)(F)F)(F)F,2,600,44,2
283.15,60.0,0.1257,Training,1-butyl-1-methyl-pyrrolidinium bis(trifluoromethylsulfonyl)imide,CCCC[N+]1(CCCC1)C.C(F)(F)(F)S(=O)(=O)[N-]S(=O)(=O)C(F)(F)F,C1CC[N+](CCCC)(C1)C.O=S(=O)([N-]S(=O)(C(F)(F)F)=O)C(F)(F)F,2,600,44,2
283.15,60.0,0.1257,Training,1-butyl-1-methyl-pyrrolidinium bis(trifluoromethylsulfonyl)imide,CCCC[N+]1(CCCC1)C.C(F)(F)(F)S(=O)(=O)[N-]S(=O)(=O)C(F)(F)F,C([N+]1(C)CCCC1)CCC.FC(F)(S(=O)([N-]S(C(F)(F)F)(=O)=O)=O)F,2,600,44,2
283.15,60.0,0.1257,Training,1-butyl-1-methyl-pyrrolidinium bis(trifluoromethylsulfonyl)imide,CCCC[N+]1(CCCC1)C.C(F)(F)(F)S(=O)(=O)[N-]S(=O)(=O)C(F)(F)F,C(F)(S(=O)([N-]S(=O)(=O)C(F)(F)F)=O)(F)F.C1C[N+](CCCC)(C)CC1,2,600,44,2
283.15,60.0,0.1257,Training,1-butyl-1-methyl-pyrrolidinium bis(trifluoromethylsulfonyl)imide,CCCC[N+]1(CCCC1)C.C(F)(F)(F)S(=O)(=O)[N-]S(=O)(=O)C(F)(F)F,C(CC[N+]1(C)CCCC1)C.FC(F)(F)S(=O)(=O)[N-]S(=O)(=O)C(F)(F)F,2,600,44,2
283.15,60.0,0.1257,Training,1-butyl-1-methyl-pyrrolidinium bis(trifluoromethylsulfonyl)imide,CCCC[N+]1(CCCC1)C.C(F)(F)(F)S(=O)(=O)[N-]S(=O)(=O)C(F)(F)F,C(CCC)[N+]1(C)CCCC1.FC(S(=O)(=O)[N-]S(C(F)(F)F)(=O)=O)(F)F,2,600,44,2
283.15,65.0,0.1259,Training,1-butyl-1-methyl-pyrrolidinium bis(trifluoromethylsulfonyl)imide,CCCC[N+]1(CCCC1)C.C(F)(F)(F)S(=O)(=O)[N-]S(=O)(=O)C(F)(F)F,CCCC[N+]1(C)CCCC1.O=S(=O)([N-]S(=O)(=O)C(F)(F)F)C(F)(F)F,2,650,45,2
283.15,65.0,0.1259,Training,1-butyl-1-methyl-pyrrolidinium bis(trifluoromethylsulfonyl)imide,CCCC[N+]1(CCCC1)C.C(F)(F)(F)S(=O)(=O)[N-]S(=O)(=O)C(F)(F)F,C1[N+](C)(CCCC)CCC1.FC(S([N-]S(C(F)(F)F)(=O)=O)(=O)=O)(F)F,2,650,45,2
283.15,65.0,0.1259,Training,1-butyl-1-methyl-pyrrolidinium bis(trifluoromethylsulfonyl)imide,CCCC[N+]1(CCCC1)C.C(F)(F)(F)S(=O)(=O)[N-]S(=O)(=O)C(F)(F)F,C1CCC[N+]1(C)CCCC.FC(F)(F)S(=O)(=O)[N-]S(C(F)(F)F)(=O)=O,2,650,45,2
283.15,65.0,0.1259,Training,1-butyl-1-methyl-pyrrolidinium bis(trifluoromethylsulfonyl)imide,CCCC[N+]1(CCCC1)C.C(F)(F)(F)S(=O)(=O)[N-]S(=O)(=O)C(F)(F)F,C[N+]1(CCCC1)CCCC.FC(S(=O)(=O)[N-]S(=O)(C(F)(F)F)=O)(F)F,2,650,45,2
283.15,65.0,0.1259,Training,1-butyl-1-methyl-pyrrolidinium bis(trifluoromethylsulfonyl)imide,CCCC[N+]1(CCCC1)C.C(F)(F)(F)S(=O)(=O)[N-]S(=O)(=O)C(F)(F)F,C1[N+](CCC1)(C)CCCC.FC(F)(F)S([N-]S(C(F)(F)F)(=O)=O)(=O)=O,2,650,45,2
283.15,65.0,0.1259,Training,1-butyl-1-methyl-pyrrolidinium bis(trifluoromethylsulfonyl)imide,CCCC[N+]1(CCCC1)C.C(F)(F)(F)S(=O)(=O)[N-]S(=O)(=O)C(F)(F)F,C(CC)C[N+]1(CCCC1)C.FC(F)(F)S([N-]S(=O)(C(F)(F)F)=O)(=O)=O,2,650,45,2