T/K,P/MPa,TC/W m-1 K-1,Data type,Name,SMILES,Normalized SMILES,index,P/bar,RANDOM,IL
334.3,10.0,0.159,Training,N-octylpyridinium tetrafluoroborate,[B-](F)(F)(F)F.CCCCCCCC[N+]1=CC=CC=C1,F[B-](F)(F)F.c1cc[n+](CCCCCCCC)cc1,37,100,481,37
334.3,10.0,0.159,Training,N-octylpyridinium tetrafluoroborate,[B-](F)(F)(F)F.CCCCCCCC[N+]1=CC=CC=C1,C(CCCCCC)C[n+]1ccccc1.[B-](F)(F)(F)F,37,100,481,37
334.3,10.0,0.159,Training,N-octylpyridinium tetrafluoroborate,[B-](F)(F)(F)F.CCCCCCCC[N+]1=CC=CC=C1,[B-](F)(F)(F)F.c1cc[n+](CCCCCCCC)cc1,37,100,481,37
334.3,10.0,0.159,Training,N-octylpyridinium tetrafluoroborate,[B-](F)(F)(F)F.CCCCCCCC[N+]1=CC=CC=C1,C(CCCCCC[n+]1ccccc1)C.[B-](F)(F)(F)F,37,100,481,37
334.3,20.0,0.161,Training,N-octylpyridinium tetrafluoroborate,[B-](F)(F)(F)F.CCCCCCCC[N+]1=CC=CC=C1,CCCCCCCC[n+]1ccccc1.F[B-](F)(F)F,37,200,482,37
334.3,20.0,0.161,Training,N-octylpyridinium tetrafluoroborate,[B-](F)(F)(F)F.CCCCCCCC[N+]1=CC=CC=C1,F[B-](F)(F)F.[n+]1(CCCCCCCC)ccccc1,37,200,482,37
334.3,20.0,0.161,Training,N-octylpyridinium tetrafluoroborate,[B-](F)(F)(F)F.CCCCCCCC[N+]1=CC=CC=C1,F[B-](F)(F)F.c1cc[n+](CCCCCCCC)cc1,37,200,482,37
334.3,20.0,0.161,Training,N-octylpyridinium tetrafluoroborate,[B-](F)(F)(F)F.CCCCCCCC[N+]1=CC=CC=C1,F[B-](F)(F)F.c1c[n+](CCCCCCCC)ccc1,37,200,482,37
334.3,20.0,0.161,Training,N-octylpyridinium tetrafluoroborate,[B-](F)(F)(F)F.CCCCCCCC[N+]1=CC=CC=C1,F[B-](F)(F)F.c1[n+](CCCCCCCC)cccc1,37,200,482,37
334.3,20.0,0.161,Training,N-octylpyridinium tetrafluoroborate,[B-](F)(F)(F)F.CCCCCCCC[N+]1=CC=CC=C1,C(CCCCC)CC[n+]1ccccc1.F[B-](F)(F)F,37,200,482,37
334.3,20.0,0.161,Training,N-octylpyridinium tetrafluoroborate,[B-](F)(F)(F)F.CCCCCCCC[N+]1=CC=CC=C1,C(CC[n+]1ccccc1)CCCCC.F[B-](F)(F)F,37,200,482,37
334.3,20.0,0.161,Training,N-octylpyridinium tetrafluoroborate,[B-](F)(F)(F)F.CCCCCCCC[N+]1=CC=CC=C1,C(C[n+]1ccccc1)CCCCCC.F[B-](F)(F)F,37,200,482,37
334.3,20.0,0.161,Training,N-octylpyridinium tetrafluoroborate,[B-](F)(F)(F)F.CCCCCCCC[N+]1=CC=CC=C1,F[B-](F)(F)F.[n+]1(ccccc1)CCCCCCCC,37,200,482,37
294.2,0.1,0.166,Testing,1-hexyl-3-methylimidazolium tetrafluoroborate,[B-](F)(F)(F)F.CCCCCCN1C=C[N+](=C1)C,CCCCCCn1cc[n+](C)c1.F[B-](F)(F)F,32,1,483,32
294.2,0.1,0.166,Testing,1-hexyl-3-methylimidazolium tetrafluoroborate,[B-](F)(F)(F)F.CCCCCCN1C=C[N+](=C1)C,C(CCCn1c[n+](C)cc1)CC.F[B-](F)(F)F,32,1,483,32
294.2,0.1,0.166,Testing,1-hexyl-3-methylimidazolium tetrafluoroborate,[B-](F)(F)(F)F.CCCCCCN1C=C[N+](=C1)C,C(CCn1c[n+](C)cc1)CCC.F[B-](F)(F)F,32,1,483,32
294.2,0.1,0.166,Testing,1-hexyl-3-methylimidazolium tetrafluoroborate,[B-](F)(F)(F)F.CCCCCCN1C=C[N+](=C1)C,C(CCC)CCn1c[n+](cc1)C.F[B-](F)(F)F,32,1,483,32
294.2,0.1,0.166,Testing,1-hexyl-3-methylimidazolium tetrafluoroborate,[B-](F)(F)(F)F.CCCCCCN1C=C[N+](=C1)C,F[B-](F)(F)F.[n+]1(ccn(CCCCCC)c1)C,32,1,483,32
294.2,0.1,0.166,Testing,1-hexyl-3-methylimidazolium tetrafluoroborate,[B-](F)(F)(F)F.CCCCCCN1C=C[N+](=C1)C,[B-](F)(F)(F)F.c1n(CCCCCC)cc[n+]1C,32,1,483,32
294.2,0.1,0.166,Testing,1-hexyl-3-methylimidazolium tetrafluoroborate,[B-](F)(F)(F)F.CCCCCCN1C=C[N+](=C1)C,CCCCCCn1c[n+](C)cc1.[B-](F)(F)(F)F,32,1,483,32
294.2,0.1,0.166,Testing,1-hexyl-3-methylimidazolium tetrafluoroborate,[B-](F)(F)(F)F.CCCCCCN1C=C[N+](=C1)C,F[B-](F)(F)F.n1(CCCCCC)c[n+](C)cc1,32,1,483,32
294.2,0.1,0.166,Testing,1-hexyl-3-methylimidazolium tetrafluoroborate,[B-](F)(F)(F)F.CCCCCCN1C=C[N+](=C1)C,C[n+]1ccn(CCCCCC)c1.F[B-](F)(F)F,32,1,483,32
294.2,10.0,0.168,Testing,1-hexyl-3-methylimidazolium tetrafluoroborate,[B-](F)(F)(F)F.CCCCCCN1C=C[N+](=C1)C,CCCCCCn1cc[n+](C)c1.F[B-](F)(F)F,32,100,484,32
294.2,10.0,0.168,Testing,1-hexyl-3-methylimidazolium tetrafluoroborate,[B-](F)(F)(F)F.CCCCCCN1C=C[N+](=C1)C,[B-](F)(F)(F)F.c1c[n+](cn1CCCCCC)C,32,100,484,32
294.2,10.0,0.168,Testing,1-hexyl-3-methylimidazolium tetrafluoroborate,[B-](F)(F)(F)F.CCCCCCN1C=C[N+](=C1)C,C[n+]1cn(cc1)CCCCCC.F[B-](F)(F)F,32,100,484,32
294.2,10.0,0.168,Testing,1-hexyl-3-methylimidazolium tetrafluoroborate,[B-](F)(F)(F)F.CCCCCCN1C=C[N+](=C1)C,F[B-](F)(F)F.c1cn(c[n+]1C)CCCCCC,32,100,484,32
294.2,10.0,0.168,Testing,1-hexyl-3-methylimidazolium tetrafluoroborate,[B-](F)(F)(F)F.CCCCCCN1C=C[N+](=C1)C,C(CCCCC)n1c[n+](cc1)C.F[B-](F)(F)F,32,100,484,32
294.2,10.0,0.168,Testing,1-hexyl-3-methylimidazolium tetrafluoroborate,[B-](F)(F)(F)F.CCCCCCN1C=C[N+](=C1)C,C(CCCCn1c[n+](C)cc1)C.F[B-](F)(F)F,32,100,484,32
294.2,10.0,0.168,Testing,1-hexyl-3-methylimidazolium tetrafluoroborate,[B-](F)(F)(F)F.CCCCCCN1C=C[N+](=C1)C,C(CCCn1cc[n+](C)c1)CC.F[B-](F)(F)F,32,100,484,32
294.2,10.0,0.168,Testing,1-hexyl-3-methylimidazolium tetrafluoroborate,[B-](F)(F)(F)F.CCCCCCN1C=C[N+](=C1)C,C(CCCCn1cc[n+](c1)C)C.F[B-](F)(F)F,32,100,484,32
294.2,10.0,0.168,Testing,1-hexyl-3-methylimidazolium tetrafluoroborate,[B-](F)(F)(F)F.CCCCCCN1C=C[N+](=C1)C,F[B-](F)(F)F.n1(c[n+](C)cc1)CCCCCC,32,100,484,32
294.2,10.0,0.168,Testing,1-hexyl-3-methylimidazolium tetrafluoroborate,[B-](F)(F)(F)F.CCCCCCN1C=C[N+](=C1)C,C(CCCn1c[n+](C)cc1)CC.F[B-](F)(F)F,32,100,484,32
294.2,20.0,0.17,Training,1-hexyl-3-methylimidazolium tetrafluoroborate,[B-](F)(F)(F)F.CCCCCCN1C=C[N+](=C1)C,CCCCCCn1cc[n+](C)c1.F[B-](F)(F)F,32,200,485,32
294.2,20.0,0.17,Training,1-hexyl-3-methylimidazolium tetrafluoroborate,[B-](F)(F)(F)F.CCCCCCN1C=C[N+](=C1)C,F[B-](F)(F)F.c1n(CCCCCC)cc[n+]1C,32,200,485,32
294.2,20.0,0.17,Training,1-hexyl-3-methylimidazolium tetrafluoroborate,[B-](F)(F)(F)F.CCCCCCN1C=C[N+](=C1)C,C(CCn1cc[n+](C)c1)CCC.F[B-](F)(F)F,32,200,485,32
294.2,20.0,0.17,Training,1-hexyl-3-methylimidazolium tetrafluoroborate,[B-](F)(F)(F)F.CCCCCCN1C=C[N+](=C1)C,C[n+]1cn(CCCCCC)cc1.[B-](F)(F)(F)F,32,200,485,32
294.2,20.0,0.17,Training,1-hexyl-3-methylimidazolium tetrafluoroborate,[B-](F)(F)(F)F.CCCCCCN1C=C[N+](=C1)C,F[B-](F)(F)F.[n+]1(ccn(CCCCCC)c1)C,32,200,485,32
294.2,20.0,0.17,Training,1-hexyl-3-methylimidazolium tetrafluoroborate,[B-](F)(F)(F)F.CCCCCCN1C=C[N+](=C1)C,C[n+]1ccn(c1)CCCCCC.F[B-](F)(F)F,32,200,485,32
294.2,20.0,0.17,Training,1-hexyl-3-methylimidazolium tetrafluoroborate,[B-](F)(F)(F)F.CCCCCCN1C=C[N+](=C1)C,F[B-](F)(F)F.c1cn(CCCCCC)c[n+]1C,32,200,485,32
294.2,20.0,0.17,Training,1-hexyl-3-methylimidazolium tetrafluoroborate,[B-](F)(F)(F)F.CCCCCCN1C=C[N+](=C1)C,C(CCCC)Cn1cc[n+](c1)C.[B-](F)(F)(F)F,32,200,485,32
294.2,20.0,0.17,Training,1-hexyl-3-methylimidazolium tetrafluoroborate,[B-](F)(F)(F)F.CCCCCCN1C=C[N+](=C1)C,C(CCCn1cc[n+](C)c1)CC.F[B-](F)(F)F,32,200,485,32
294.2,20.0,0.17,Training,1-hexyl-3-methylimidazolium tetrafluoroborate,[B-](F)(F)(F)F.CCCCCCN1C=C[N+](=C1)C,CCCCCCn1c[n+](C)cc1.F[B-](F)(F)F,32,200,485,32
314.3,0.1,0.165,Training,1-hexyl-3-methylimidazolium tetrafluoroborate,[B-](F)(F)(F)F.CCCCCCN1C=C[N+](=C1)C,CCCCCCn1cc[n+](C)c1.F[B-](F)(F)F,32,1,486,32
314.3,0.1,0.165,Training,1-hexyl-3-methylimidazolium tetrafluoroborate,[B-](F)(F)(F)F.CCCCCCN1C=C[N+](=C1)C,F[B-](F)(F)F.c1n(c[n+](c1)C)CCCCCC,32,1,486,32
314.3,0.1,0.165,Training,1-hexyl-3-methylimidazolium tetrafluoroborate,[B-](F)(F)(F)F.CCCCCCN1C=C[N+](=C1)C,C(n1c[n+](cc1)C)CCCCC.F[B-](F)(F)F,32,1,486,32
314.3,0.1,0.165,Training,1-hexyl-3-methylimidazolium tetrafluoroborate,[B-](F)(F)(F)F.CCCCCCN1C=C[N+](=C1)C,F[B-](F)(F)F.c1n(cc[n+]1C)CCCCCC,32,1,486,32
314.3,0.1,0.165,Training,1-hexyl-3-methylimidazolium tetrafluoroborate,[B-](F)(F)(F)F.CCCCCCN1C=C[N+](=C1)C,C(CCn1c[n+](C)cc1)CCC.F[B-](F)(F)F,32,1,486,32
314.3,0.1,0.165,Training,1-hexyl-3-methylimidazolium tetrafluoroborate,[B-](F)(F)(F)F.CCCCCCN1C=C[N+](=C1)C,F[B-](F)(F)F.c1cn(c[n+]1C)CCCCCC,32,1,486,32
314.3,0.1,0.165,Training,1-hexyl-3-methylimidazolium tetrafluoroborate,[B-](F)(F)(F)F.CCCCCCN1C=C[N+](=C1)C,F[B-](F)(F)F.c1[n+](ccn1CCCCCC)C,32,1,486,32
314.3,0.1,0.165,Training,1-hexyl-3-methylimidazolium tetrafluoroborate,[B-](F)(F)(F)F.CCCCCCN1C=C[N+](=C1)C,C(CCCC)Cn1cc[n+](c1)C.F[B-](F)(F)F,32,1,486,32
314.3,0.1,0.165,Training,1-hexyl-3-methylimidazolium tetrafluoroborate,[B-](F)(F)(F)F.CCCCCCN1C=C[N+](=C1)C,C(C)CCCCn1c[n+](C)cc1.F[B-](F)(F)F,32,1,486,32
314.3,0.1,0.165,Training,1-hexyl-3-methylimidazolium tetrafluoroborate,[B-](F)(F)(F)F.CCCCCCN1C=C[N+](=C1)C,C(CCCn1c[n+](cc1)C)CC.F[B-](F)(F)F,32,1,486,32
314.3,10.0,0.168,Training,1-hexyl-3-methylimidazolium tetrafluoroborate,[B-](F)(F)(F)F.CCCCCCN1C=C[N+](=C1)C,CCCCCCn1cc[n+](C)c1.F[B-](F)(F)F,32,100,487,32
314.3,10.0,0.168,Training,1-hexyl-3-methylimidazolium tetrafluoroborate,[B-](F)(F)(F)F.CCCCCCN1C=C[N+](=C1)C,C[n+]1ccn(c1)CCCCCC.F[B-](F)(F)F,32,100,487,32
314.3,10.0,0.168,Training,1-hexyl-3-methylimidazolium tetrafluoroborate,[B-](F)(F)(F)F.CCCCCCN1C=C[N+](=C1)C,C(CCC)CCn1c[n+](cc1)C.[B-](F)(F)(F)F,32,100,487,32
314.3,10.0,0.168,Training,1-hexyl-3-methylimidazolium tetrafluoroborate,[B-](F)(F)(F)F.CCCCCCN1C=C[N+](=C1)C,[B-](F)(F)(F)F.c1[n+](C)ccn1CCCCCC,32,100,487,32
314.3,10.0,0.168,Training,1-hexyl-3-methylimidazolium tetrafluoroborate,[B-](F)(F)(F)F.CCCCCCN1C=C[N+](=C1)C,F[B-](F)(F)F.c1n(cc[n+]1C)CCCCCC,32,100,487,32
314.3,10.0,0.168,Training,1-hexyl-3-methylimidazolium tetrafluoroborate,[B-](F)(F)(F)F.CCCCCCN1C=C[N+](=C1)C,C(Cn1cc[n+](C)c1)CCCC.F[B-](F)(F)F,32,100,487,32
314.3,10.0,0.168,Training,1-hexyl-3-methylimidazolium tetrafluoroborate,[B-](F)(F)(F)F.CCCCCCN1C=C[N+](=C1)C,C(CCCCn1c[n+](cc1)C)C.F[B-](F)(F)F,32,100,487,32
314.3,10.0,0.168,Training,1-hexyl-3-methylimidazolium tetrafluoroborate,[B-](F)(F)(F)F.CCCCCCN1C=C[N+](=C1)C,C(CCCn1c[n+](C)cc1)CC.F[B-](F)(F)F,32,100,487,32
314.3,10.0,0.168,Training,1-hexyl-3-methylimidazolium tetrafluoroborate,[B-](F)(F)(F)F.CCCCCCN1C=C[N+](=C1)C,C(CC)CCCn1c[n+](cc1)C.[B-](F)(F)(F)F,32,100,487,32
314.3,20.0,0.169,Training,1-hexyl-3-methylimidazolium tetrafluoroborate,[B-](F)(F)(F)F.CCCCCCN1C=C[N+](=C1)C,CCCCCCn1cc[n+](C)c1.F[B-](F)(F)F,32,200,488,32
314.3,20.0,0.169,Training,1-hexyl-3-methylimidazolium tetrafluoroborate,[B-](F)(F)(F)F.CCCCCCN1C=C[N+](=C1)C,F[B-](F)(F)F.c1n(CCCCCC)c[n+](C)c1,32,200,488,32
314.3,20.0,0.169,Training,1-hexyl-3-methylimidazolium tetrafluoroborate,[B-](F)(F)(F)F.CCCCCCN1C=C[N+](=C1)C,F[B-](F)(F)F.c1[n+](C)ccn1CCCCCC,32,200,488,32
314.3,20.0,0.169,Training,1-hexyl-3-methylimidazolium tetrafluoroborate,[B-](F)(F)(F)F.CCCCCCN1C=C[N+](=C1)C,C(CC)CCCn1cc[n+](C)c1.F[B-](F)(F)F,32,200,488,32
314.3,20.0,0.169,Training,1-hexyl-3-methylimidazolium tetrafluoroborate,[B-](F)(F)(F)F.CCCCCCN1C=C[N+](=C1)C,F[B-](F)(F)F.c1c[n+](C)cn1CCCCCC,32,200,488,32
314.3,20.0,0.169,Training,1-hexyl-3-methylimidazolium tetrafluoroborate,[B-](F)(F)(F)F.CCCCCCN1C=C[N+](=C1)C,F[B-](F)(F)F.c1n(c[n+](c1)C)CCCCCC,32,200,488,32
314.3,20.0,0.169,Training,1-hexyl-3-methylimidazolium tetrafluoroborate,[B-](F)(F)(F)F.CCCCCCN1C=C[N+](=C1)C,C(n1c[n+](cc1)C)CCCCC.F[B-](F)(F)F,32,200,488,32
314.3,20.0,0.169,Training,1-hexyl-3-methylimidazolium tetrafluoroborate,[B-](F)(F)(F)F.CCCCCCN1C=C[N+](=C1)C,[B-](F)(F)(F)F.c1[n+](ccn1CCCCCC)C,32,200,488,32
314.3,20.0,0.169,Training,1-hexyl-3-methylimidazolium tetrafluoroborate,[B-](F)(F)(F)F.CCCCCCN1C=C[N+](=C1)C,C(CCCCC)n1cc[n+](c1)C.[B-](F)(F)(F)F,32,200,488,32
314.3,20.0,0.169,Training,1-hexyl-3-methylimidazolium tetrafluoroborate,[B-](F)(F)(F)F.CCCCCCN1C=C[N+](=C1)C,F[B-](F)(F)F.n1(CCCCCC)cc[n+](c1)C,32,200,488,32
334.3,0.1,0.164,Training,1-hexyl-3-methylimidazolium tetrafluoroborate,[B-](F)(F)(F)F.CCCCCCN1C=C[N+](=C1)C,CCCCCCn1cc[n+](C)c1.F[B-](F)(F)F,32,1,489,32
334.3,0.1,0.164,Training,1-hexyl-3-methylimidazolium tetrafluoroborate,[B-](F)(F)(F)F.CCCCCCN1C=C[N+](=C1)C,C(CCCC)Cn1c[n+](cc1)C.[B-](F)(F)(F)F,32,1,489,32
334.3,0.1,0.164,Training,1-hexyl-3-methylimidazolium tetrafluoroborate,[B-](F)(F)(F)F.CCCCCCN1C=C[N+](=C1)C,C(CCCCn1cc[n+](c1)C)C.[B-](F)(F)(F)F,32,1,489,32
334.3,0.1,0.164,Training,1-hexyl-3-methylimidazolium tetrafluoroborate,[B-](F)(F)(F)F.CCCCCCN1C=C[N+](=C1)C,[B-](F)(F)(F)F.c1cn(c[n+]1C)CCCCCC,32,1,489,32
334.3,0.1,0.164,Training,1-hexyl-3-methylimidazolium tetrafluoroborate,[B-](F)(F)(F)F.CCCCCCN1C=C[N+](=C1)C,F[B-](F)(F)F.c1[n+](cn(CCCCCC)c1)C,32,1,489,32
334.3,0.1,0.164,Training,1-hexyl-3-methylimidazolium tetrafluoroborate,[B-](F)(F)(F)F.CCCCCCN1C=C[N+](=C1)C,C(CCCCn1cc[n+](C)c1)C.F[B-](F)(F)F,32,1,489,32
334.3,0.1,0.164,Training,1-hexyl-3-methylimidazolium tetrafluoroborate,[B-](F)(F)(F)F.CCCCCCN1C=C[N+](=C1)C,C(C)CCCCn1cc[n+](C)c1.[B-](F)(F)(F)F,32,1,489,32
334.3,0.1,0.164,Training,1-hexyl-3-methylimidazolium tetrafluoroborate,[B-](F)(F)(F)F.CCCCCCN1C=C[N+](=C1)C,C(CC)CCCn1cc[n+](C)c1.[B-](F)(F)(F)F,32,1,489,32
334.3,0.1,0.164,Training,1-hexyl-3-methylimidazolium tetrafluoroborate,[B-](F)(F)(F)F.CCCCCCN1C=C[N+](=C1)C,F[B-](F)(F)F.c1[n+](C)cn(CCCCCC)c1,32,1,489,32
334.3,0.1,0.164,Training,1-hexyl-3-methylimidazolium tetrafluoroborate,[B-](F)(F)(F)F.CCCCCCN1C=C[N+](=C1)C,C[n+]1cn(CCCCCC)cc1.F[B-](F)(F)F,32,1,489,32
334.3,10.0,0.167,Training,1-hexyl-3-methylimidazolium tetrafluoroborate,[B-](F)(F)(F)F.CCCCCCN1C=C[N+](=C1)C,CCCCCCn1cc[n+](C)c1.F[B-](F)(F)F,32,100,490,32
334.3,10.0,0.167,Training,1-hexyl-3-methylimidazolium tetrafluoroborate,[B-](F)(F)(F)F.CCCCCCN1C=C[N+](=C1)C,F[B-](F)(F)F.c1n(c[n+](c1)C)CCCCCC,32,100,490,32
334.3,10.0,0.167,Training,1-hexyl-3-methylimidazolium tetrafluoroborate,[B-](F)(F)(F)F.CCCCCCN1C=C[N+](=C1)C,F[B-](F)(F)F.c1[n+](C)cn(CCCCCC)c1,32,100,490,32
334.3,10.0,0.167,Training,1-hexyl-3-methylimidazolium tetrafluoroborate,[B-](F)(F)(F)F.CCCCCCN1C=C[N+](=C1)C,[B-](F)(F)(F)F.c1n(cc[n+]1C)CCCCCC,32,100,490,32
334.3,10.0,0.167,Training,1-hexyl-3-methylimidazolium tetrafluoroborate,[B-](F)(F)(F)F.CCCCCCN1C=C[N+](=C1)C,F[B-](F)(F)F.[n+]1(cn(cc1)CCCCCC)C,32,100,490,32
334.3,10.0,0.167,Training,1-hexyl-3-methylimidazolium tetrafluoroborate,[B-](F)(F)(F)F.CCCCCCN1C=C[N+](=C1)C,C(C)CCCCn1c[n+](cc1)C.F[B-](F)(F)F,32,100,490,32
334.3,10.0,0.167,Training,1-hexyl-3-methylimidazolium tetrafluoroborate,[B-](F)(F)(F)F.CCCCCCN1C=C[N+](=C1)C,F[B-](F)(F)F.c1[n+](ccn1CCCCCC)C,32,100,490,32
334.3,10.0,0.167,Training,1-hexyl-3-methylimidazolium tetrafluoroborate,[B-](F)(F)(F)F.CCCCCCN1C=C[N+](=C1)C,C[n+]1ccn(CCCCCC)c1.F[B-](F)(F)F,32,100,490,32
334.3,10.0,0.167,Training,1-hexyl-3-methylimidazolium tetrafluoroborate,[B-](F)(F)(F)F.CCCCCCN1C=C[N+](=C1)C,C(Cn1cc[n+](c1)C)CCCC.F[B-](F)(F)F,32,100,490,32
334.3,20.0,0.169,Training,1-hexyl-3-methylimidazolium tetrafluoroborate,[B-](F)(F)(F)F.CCCCCCN1C=C[N+](=C1)C,CCCCCCn1cc[n+](C)c1.F[B-](F)(F)F,32,200,491,32
334.3,20.0,0.169,Training,1-hexyl-3-methylimidazolium tetrafluoroborate,[B-](F)(F)(F)F.CCCCCCN1C=C[N+](=C1)C,CCCCCCn1c[n+](C)cc1.[B-](F)(F)(F)F,32,200,491,32
334.3,20.0,0.169,Training,1-hexyl-3-methylimidazolium tetrafluoroborate,[B-](F)(F)(F)F.CCCCCCN1C=C[N+](=C1)C,F[B-](F)(F)F.c1cn(CCCCCC)c[n+]1C,32,200,491,32
334.3,20.0,0.169,Training,1-hexyl-3-methylimidazolium tetrafluoroborate,[B-](F)(F)(F)F.CCCCCCN1C=C[N+](=C1)C,C(C)CCCCn1cc[n+](C)c1.F[B-](F)(F)F,32,200,491,32
334.3,20.0,0.169,Training,1-hexyl-3-methylimidazolium tetrafluoroborate,[B-](F)(F)(F)F.CCCCCCN1C=C[N+](=C1)C,C(CCCCn1cc[n+](C)c1)C.F[B-](F)(F)F,32,200,491,32
334.3,20.0,0.169,Training,1-hexyl-3-methylimidazolium tetrafluoroborate,[B-](F)(F)(F)F.CCCCCCN1C=C[N+](=C1)C,CCCCCCn1c[n+](cc1)C.F[B-](F)(F)F,32,200,491,32
334.3,20.0,0.169,Training,1-hexyl-3-methylimidazolium tetrafluoroborate,[B-](F)(F)(F)F.CCCCCCN1C=C[N+](=C1)C,CCCCCCn1c[n+](C)cc1.F[B-](F)(F)F,32,200,491,32
334.3,20.0,0.169,Training,1-hexyl-3-methylimidazolium tetrafluoroborate,[B-](F)(F)(F)F.CCCCCCN1C=C[N+](=C1)C,F[B-](F)(F)F.c1[n+](C)ccn1CCCCCC,32,200,491,32
334.3,20.0,0.169,Training,1-hexyl-3-methylimidazolium tetrafluoroborate,[B-](F)(F)(F)F.CCCCCCN1C=C[N+](=C1)C,C[n+]1cn(CCCCCC)cc1.[B-](F)(F)(F)F,32,200,491,32
334.3,20.0,0.169,Training,1-hexyl-3-methylimidazolium tetrafluoroborate,[B-](F)(F)(F)F.CCCCCCN1C=C[N+](=C1)C,[B-](F)(F)(F)F.c1c[n+](cn1CCCCCC)C,32,200,491,32
294.2,0.1,0.164,Training,1-octyl-3-methylimidazolium tetrafluoroborate,[B-](F)(F)(F)F.CCCCCCCCN1C=C[N+](=C1)C,CCCCCCCCn1cc[n+](C)c1.F[B-](F)(F)F,38,1,492,38
294.2,0.1,0.164,Training,1-octyl-3-methylimidazolium tetrafluoroborate,[B-](F)(F)(F)F.CCCCCCCCN1C=C[N+](=C1)C,CCCCCCCCn1c[n+](cc1)C.F[B-](F)(F)F,38,1,492,38
294.2,0.1,0.164,Training,1-octyl-3-methylimidazolium tetrafluoroborate,[B-](F)(F)(F)F.CCCCCCCCN1C=C[N+](=C1)C,C[n+]1cn(CCCCCCCC)cc1.F[B-](F)(F)F,38,1,492,38
294.2,0.1,0.164,Training,1-octyl-3-methylimidazolium tetrafluoroborate,[B-](F)(F)(F)F.CCCCCCCCN1C=C[N+](=C1)C,F[B-](F)(F)F.c1[n+](cn(c1)CCCCCCCC)C,38,1,492,38
294.2,0.1,0.164,Training,1-octyl-3-methylimidazolium tetrafluoroborate,[B-](F)(F)(F)F.CCCCCCCCN1C=C[N+](=C1)C,C(Cn1cc[n+](c1)C)CCCCCC.[B-](F)(F)(F)F,38,1,492,38
294.2,0.1,0.164,Training,1-octyl-3-methylimidazolium tetrafluoroborate,[B-](F)(F)(F)F.CCCCCCCCN1C=C[N+](=C1)C,C(CCC)CCCCn1c[n+](C)cc1.F[B-](F)(F)F,38,1,492,38
294.2,0.1,0.164,Training,1-octyl-3-methylimidazolium tetrafluoroborate,[B-](F)(F)(F)F.CCCCCCCCN1C=C[N+](=C1)C,C(Cn1c[n+](C)cc1)CCCCCC.F[B-](F)(F)F,38,1,492,38
294.2,0.1,0.164,Training,1-octyl-3-methylimidazolium tetrafluoroborate,[B-](F)(F)(F)F.CCCCCCCCN1C=C[N+](=C1)C,C(CCCCCn1cc[n+](C)c1)CC.F[B-](F)(F)F,38,1,492,38
294.2,0.1,0.164,Training,1-octyl-3-methylimidazolium tetrafluoroborate,[B-](F)(F)(F)F.CCCCCCCCN1C=C[N+](=C1)C,F[B-](F)(F)F.[n+]1(cn(cc1)CCCCCCCC)C,38,1,492,38
294.2,10.0,0.165,Training,1-octyl-3-methylimidazolium tetrafluoroborate,[B-](F)(F)(F)F.CCCCCCCCN1C=C[N+](=C1)C,CCCCCCCCn1cc[n+](C)c1.F[B-](F)(F)F,38,100,493,38
294.2,10.0,0.165,Training,1-octyl-3-methylimidazolium tetrafluoroborate,[B-](F)(F)(F)F.CCCCCCCCN1C=C[N+](=C1)C,F[B-](F)(F)F.c1n(cc[n+]1C)CCCCCCCC,38,100,493,38
294.2,10.0,0.165,Training,1-octyl-3-methylimidazolium tetrafluoroborate,[B-](F)(F)(F)F.CCCCCCCCN1C=C[N+](=C1)C,F[B-](F)(F)F.c1cn(CCCCCCCC)c[n+]1C,38,100,493,38
294.2,10.0,0.165,Training,1-octyl-3-methylimidazolium tetrafluoroborate,[B-](F)(F)(F)F.CCCCCCCCN1C=C[N+](=C1)C,C(Cn1cc[n+](c1)C)CCCCCC.[B-](F)(F)(F)F,38,100,493,38
294.2,10.0,0.165,Training,1-octyl-3-methylimidazolium tetrafluoroborate,[B-](F)(F)(F)F.CCCCCCCCN1C=C[N+](=C1)C,C(CCCCCCn1cc[n+](c1)C)C.F[B-](F)(F)F,38,100,493,38
294.2,10.0,0.165,Training,1-octyl-3-methylimidazolium tetrafluoroborate,[B-](F)(F)(F)F.CCCCCCCCN1C=C[N+](=C1)C,C[n+]1ccn(CCCCCCCC)c1.[B-](F)(F)(F)F,38,100,493,38
294.2,10.0,0.165,Training,1-octyl-3-methylimidazolium tetrafluoroborate,[B-](F)(F)(F)F.CCCCCCCCN1C=C[N+](=C1)C,F[B-](F)(F)F.c1[n+](C)cn(c1)CCCCCCCC,38,100,493,38
294.2,10.0,0.165,Training,1-octyl-3-methylimidazolium tetrafluoroborate,[B-](F)(F)(F)F.CCCCCCCCN1C=C[N+](=C1)C,C[n+]1ccn(CCCCCCCC)c1.F[B-](F)(F)F,38,100,493,38
294.2,10.0,0.165,Training,1-octyl-3-methylimidazolium tetrafluoroborate,[B-](F)(F)(F)F.CCCCCCCCN1C=C[N+](=C1)C,F[B-](F)(F)F.c1c[n+](C)cn1CCCCCCCC,38,100,493,38
294.2,10.0,0.165,Training,1-octyl-3-methylimidazolium tetrafluoroborate,[B-](F)(F)(F)F.CCCCCCCCN1C=C[N+](=C1)C,C(CCCCCC)Cn1c[n+](C)cc1.[B-](F)(F)(F)F,38,100,493,38
294.2,20.0,0.167,Testing,1-octyl-3-methylimidazolium tetrafluoroborate,[B-](F)(F)(F)F.CCCCCCCCN1C=C[N+](=C1)C,CCCCCCCCn1cc[n+](C)c1.F[B-](F)(F)F,38,200,494,38
294.2,20.0,0.167,Testing,1-octyl-3-methylimidazolium tetrafluoroborate,[B-](F)(F)(F)F.CCCCCCCCN1C=C[N+](=C1)C,C(n1c[n+](C)cc1)CCCCCCC.[B-](F)(F)(F)F,38,200,494,38
294.2,20.0,0.167,Testing,1-octyl-3-methylimidazolium tetrafluoroborate,[B-](F)(F)(F)F.CCCCCCCCN1C=C[N+](=C1)C,F[B-](F)(F)F.n1(cc[n+](C)c1)CCCCCCCC,38,200,494,38
294.2,20.0,0.167,Testing,1-octyl-3-methylimidazolium tetrafluoroborate,[B-](F)(F)(F)F.CCCCCCCCN1C=C[N+](=C1)C,[B-](F)(F)(F)F.c1c[n+](C)cn1CCCCCCCC,38,200,494,38
294.2,20.0,0.167,Testing,1-octyl-3-methylimidazolium tetrafluoroborate,[B-](F)(F)(F)F.CCCCCCCCN1C=C[N+](=C1)C,C[n+]1cn(cc1)CCCCCCCC.F[B-](F)(F)F,38,200,494,38
294.2,20.0,0.167,Testing,1-octyl-3-methylimidazolium tetrafluoroborate,[B-](F)(F)(F)F.CCCCCCCCN1C=C[N+](=C1)C,[B-](F)(F)(F)F.c1[n+](cn(c1)CCCCCCCC)C,38,200,494,38
294.2,20.0,0.167,Testing,1-octyl-3-methylimidazolium tetrafluoroborate,[B-](F)(F)(F)F.CCCCCCCCN1C=C[N+](=C1)C,[B-](F)(F)(F)F.[n+]1(C)cn(cc1)CCCCCCCC,38,200,494,38
294.2,20.0,0.167,Testing,1-octyl-3-methylimidazolium tetrafluoroborate,[B-](F)(F)(F)F.CCCCCCCCN1C=C[N+](=C1)C,C(CCCCCC)Cn1cc[n+](c1)C.F[B-](F)(F)F,38,200,494,38