T/K,P/MPa,TC/W m-1 K-1,Data type,Name,SMILES,Normalized SMILES,index,P/bar,RANDOM,IL
298.15,0.1,0.156,Training,tetrabutylphosphonium threonate,CCCC[P+](CCCC)(CCCC)CCCC.CC(C(C(=O)[O-])N)O,C(C[P+](CCCC)(CCCC)CCCC)CC.O=C(C(N)C(O)C)[O-],25,1,355,25
298.15,0.1,0.156,Training,tetrabutylphosphonium threonate,CCCC[P+](CCCC)(CCCC)CCCC.CC(C(C(=O)[O-])N)O,C(O)(C(C([O-])=O)N)C.C([P+](CCCC)(CCCC)CCCC)CCC,25,1,355,25
298.15,0.1,0.156,Training,tetrabutylphosphonium threonate,CCCC[P+](CCCC)(CCCC)CCCC.CC(C(C(=O)[O-])N)O,C([P+](CCCC)(CCCC)CCCC)CCC.CC(O)C(N)C([O-])=O,25,1,355,25
303.15,0.1,0.155,Training,tetrabutylphosphonium threonate,CCCC[P+](CCCC)(CCCC)CCCC.CC(C(C(=O)[O-])N)O,CC(O)C(N)C(=O)[O-].CCCC[P+](CCCC)(CCCC)CCCC,25,1,356,25
303.15,0.1,0.155,Training,tetrabutylphosphonium threonate,CCCC[P+](CCCC)(CCCC)CCCC.CC(C(C(=O)[O-])N)O,CCCC[P+](CCCC)(CCCC)CCCC.NC(C(O)C)C([O-])=O,25,1,356,25
303.15,0.1,0.155,Training,tetrabutylphosphonium threonate,CCCC[P+](CCCC)(CCCC)CCCC.CC(C(C(=O)[O-])N)O,C(CCC)[P+](CCCC)(CCCC)CCCC.NC(C([O-])=O)C(C)O,25,1,356,25
303.15,0.1,0.155,Training,tetrabutylphosphonium threonate,CCCC[P+](CCCC)(CCCC)CCCC.CC(C(C(=O)[O-])N)O,CCCC[P+](CCCC)(CCCC)CCCC.[O-]C(=O)C(N)C(O)C,25,1,356,25
303.15,0.1,0.155,Training,tetrabutylphosphonium threonate,CCCC[P+](CCCC)(CCCC)CCCC.CC(C(C(=O)[O-])N)O,C(C(O)C)(C([O-])=O)N.[P+](CCCC)(CCCC)(CCCC)CCCC,25,1,356,25
303.15,0.1,0.155,Training,tetrabutylphosphonium threonate,CCCC[P+](CCCC)(CCCC)CCCC.CC(C(C(=O)[O-])N)O,CCCC[P+](CCCC)(CCCC)CCCC.NC(C(=O)[O-])C(C)O,25,1,356,25
303.15,0.1,0.155,Training,tetrabutylphosphonium threonate,CCCC[P+](CCCC)(CCCC)CCCC.CC(C(C(=O)[O-])N)O,C(C)CC[P+](CCCC)(CCCC)CCCC.O=C([O-])C(N)C(O)C,25,1,356,25
303.15,0.1,0.155,Training,tetrabutylphosphonium threonate,CCCC[P+](CCCC)(CCCC)CCCC.CC(C(C(=O)[O-])N)O,C(C)CC[P+](CCCC)(CCCC)CCCC.OC(C)C(N)C([O-])=O,25,1,356,25
303.15,0.1,0.155,Training,tetrabutylphosphonium threonate,CCCC[P+](CCCC)(CCCC)CCCC.CC(C(C(=O)[O-])N)O,C([P+](CCCC)(CCCC)CCCC)CCC.CC(O)C(C(=O)[O-])N,25,1,356,25
303.15,0.1,0.155,Training,tetrabutylphosphonium threonate,CCCC[P+](CCCC)(CCCC)CCCC.CC(C(C(=O)[O-])N)O,C(CC[P+](CCCC)(CCCC)CCCC)C.CC(C(N)C([O-])=O)O,25,1,356,25
313.15,0.1,0.154,Training,tetrabutylphosphonium threonate,CCCC[P+](CCCC)(CCCC)CCCC.CC(C(C(=O)[O-])N)O,CC(O)C(N)C(=O)[O-].CCCC[P+](CCCC)(CCCC)CCCC,25,1,357,25
313.15,0.1,0.154,Training,tetrabutylphosphonium threonate,CCCC[P+](CCCC)(CCCC)CCCC.CC(C(C(=O)[O-])N)O,C(CCC)[P+](CCCC)(CCCC)CCCC.NC(C(=O)[O-])C(O)C,25,1,357,25
313.15,0.1,0.154,Training,tetrabutylphosphonium threonate,CCCC[P+](CCCC)(CCCC)CCCC.CC(C(C(=O)[O-])N)O,C(C)(O)C(N)C(=O)[O-].C(CC[P+](CCCC)(CCCC)CCCC)C,25,1,357,25
313.15,0.1,0.154,Training,tetrabutylphosphonium threonate,CCCC[P+](CCCC)(CCCC)CCCC.CC(C(C(=O)[O-])N)O,CCCC[P+](CCCC)(CCCC)CCCC.OC(C(N)C(=O)[O-])C,25,1,357,25
313.15,0.1,0.154,Training,tetrabutylphosphonium threonate,CCCC[P+](CCCC)(CCCC)CCCC.CC(C(C(=O)[O-])N)O,C(C(C)O)(N)C(=O)[O-].C([P+](CCCC)(CCCC)CCCC)CCC,25,1,357,25
313.15,0.1,0.154,Training,tetrabutylphosphonium threonate,CCCC[P+](CCCC)(CCCC)CCCC.CC(C(C(=O)[O-])N)O,C([O-])(=O)C(N)C(O)C.CCCC[P+](CCCC)(CCCC)CCCC,25,1,357,25
313.15,0.1,0.154,Training,tetrabutylphosphonium threonate,CCCC[P+](CCCC)(CCCC)CCCC.CC(C(C(=O)[O-])N)O,CCCC[P+](CCCC)(CCCC)CCCC.[O-]C(=O)C(N)C(O)C,25,1,357,25
313.15,0.1,0.154,Training,tetrabutylphosphonium threonate,CCCC[P+](CCCC)(CCCC)CCCC.CC(C(C(=O)[O-])N)O,C(CC[P+](CCCC)(CCCC)CCCC)C.[O-]C(C(C(C)O)N)=O,25,1,357,25
313.15,0.1,0.154,Training,tetrabutylphosphonium threonate,CCCC[P+](CCCC)(CCCC)CCCC.CC(C(C(=O)[O-])N)O,CCCC[P+](CCCC)(CCCC)CCCC.O=C(C(C(C)O)N)[O-],25,1,357,25
313.15,0.1,0.154,Training,tetrabutylphosphonium threonate,CCCC[P+](CCCC)(CCCC)CCCC.CC(C(C(=O)[O-])N)O,CCCC[P+](CCCC)(CCCC)CCCC.OC(C)C(C(=O)[O-])N,25,1,357,25
323.15,0.1,0.153,Testing,tetrabutylphosphonium threonate,CCCC[P+](CCCC)(CCCC)CCCC.CC(C(C(=O)[O-])N)O,CC(O)C(N)C(=O)[O-].CCCC[P+](CCCC)(CCCC)CCCC,25,1,358,25
323.15,0.1,0.153,Testing,tetrabutylphosphonium threonate,CCCC[P+](CCCC)(CCCC)CCCC.CC(C(C(=O)[O-])N)O,C(C(=O)[O-])(N)C(C)O.C(C[P+](CCCC)(CCCC)CCCC)CC,25,1,358,25
323.15,0.1,0.153,Testing,tetrabutylphosphonium threonate,CCCC[P+](CCCC)(CCCC)CCCC.CC(C(C(=O)[O-])N)O,C(C[P+](CCCC)(CCCC)CCCC)CC.O=C(C(C(C)O)N)[O-],25,1,358,25
323.15,0.1,0.153,Testing,tetrabutylphosphonium threonate,CCCC[P+](CCCC)(CCCC)CCCC.CC(C(C(=O)[O-])N)O,C(C(=O)[O-])(N)C(C)O.CCCC[P+](CCCC)(CCCC)CCCC,25,1,358,25
323.15,0.1,0.153,Testing,tetrabutylphosphonium threonate,CCCC[P+](CCCC)(CCCC)CCCC.CC(C(C(=O)[O-])N)O,CCCC[P+](CCCC)(CCCC)CCCC.OC(C)C(C(=O)[O-])N,25,1,358,25
323.15,0.1,0.153,Testing,tetrabutylphosphonium threonate,CCCC[P+](CCCC)(CCCC)CCCC.CC(C(C(=O)[O-])N)O,C([P+](CCCC)(CCCC)CCCC)CCC.CC(O)C(N)C([O-])=O,25,1,358,25
323.15,0.1,0.153,Testing,tetrabutylphosphonium threonate,CCCC[P+](CCCC)(CCCC)CCCC.CC(C(C(=O)[O-])N)O,C(CC[P+](CCCC)(CCCC)CCCC)C.[O-]C(C(N)C(O)C)=O,25,1,358,25
323.15,0.1,0.153,Testing,tetrabutylphosphonium threonate,CCCC[P+](CCCC)(CCCC)CCCC.CC(C(C(=O)[O-])N)O,[O-]C(C(N)C(O)C)=O.[P+](CCCC)(CCCC)(CCCC)CCCC,25,1,358,25
323.15,0.1,0.153,Testing,tetrabutylphosphonium threonate,CCCC[P+](CCCC)(CCCC)CCCC.CC(C(C(=O)[O-])N)O,C(C)(O)C(C([O-])=O)N.C([P+](CCCC)(CCCC)CCCC)CCC,25,1,358,25
323.15,0.1,0.153,Testing,tetrabutylphosphonium threonate,CCCC[P+](CCCC)(CCCC)CCCC.CC(C(C(=O)[O-])N)O,CCCC[P+](CCCC)(CCCC)CCCC.O=C(C(C(O)C)N)[O-],25,1,358,25
333.15,0.1,0.152,Training,tetrabutylphosphonium threonate,CCCC[P+](CCCC)(CCCC)CCCC.CC(C(C(=O)[O-])N)O,CC(O)C(N)C(=O)[O-].CCCC[P+](CCCC)(CCCC)CCCC,25,1,359,25
333.15,0.1,0.152,Training,tetrabutylphosphonium threonate,CCCC[P+](CCCC)(CCCC)CCCC.CC(C(C(=O)[O-])N)O,C([P+](CCCC)(CCCC)CCCC)CCC.O=C([O-])C(N)C(O)C,25,1,359,25
333.15,0.1,0.152,Training,tetrabutylphosphonium threonate,CCCC[P+](CCCC)(CCCC)CCCC.CC(C(C(=O)[O-])N)O,C(C[P+](CCCC)(CCCC)CCCC)CC.O=C([O-])C(C(C)O)N,25,1,359,25
333.15,0.1,0.152,Training,tetrabutylphosphonium threonate,CCCC[P+](CCCC)(CCCC)CCCC.CC(C(C(=O)[O-])N)O,C([P+](CCCC)(CCCC)CCCC)CCC.CC(C(C([O-])=O)N)O,25,1,359,25
333.15,0.1,0.152,Training,tetrabutylphosphonium threonate,CCCC[P+](CCCC)(CCCC)CCCC.CC(C(C(=O)[O-])N)O,C(C[P+](CCCC)(CCCC)CCCC)CC.OC(C)C(N)C([O-])=O,25,1,359,25
333.15,0.1,0.152,Training,tetrabutylphosphonium threonate,CCCC[P+](CCCC)(CCCC)CCCC.CC(C(C(=O)[O-])N)O,CCCC[P+](CCCC)(CCCC)CCCC.[O-]C(=O)C(N)C(C)O,25,1,359,25
333.15,0.1,0.152,Training,tetrabutylphosphonium threonate,CCCC[P+](CCCC)(CCCC)CCCC.CC(C(C(=O)[O-])N)O,C(O)(C(C(=O)[O-])N)C.CCCC[P+](CCCC)(CCCC)CCCC,25,1,359,25
333.15,0.1,0.152,Training,tetrabutylphosphonium threonate,CCCC[P+](CCCC)(CCCC)CCCC.CC(C(C(=O)[O-])N)O,C(C[P+](CCCC)(CCCC)CCCC)CC.C([O-])(C(N)C(O)C)=O,25,1,359,25
333.15,0.1,0.152,Training,tetrabutylphosphonium threonate,CCCC[P+](CCCC)(CCCC)CCCC.CC(C(C(=O)[O-])N)O,C(C(O)C)(N)C(=O)[O-].[P+](CCCC)(CCCC)(CCCC)CCCC,25,1,359,25
333.15,0.1,0.152,Training,tetrabutylphosphonium threonate,CCCC[P+](CCCC)(CCCC)CCCC.CC(C(C(=O)[O-])N)O,C(C(=O)[O-])(N)C(O)C.[P+](CCCC)(CCCC)(CCCC)CCCC,25,1,359,25
343.15,0.1,0.152,Training,tetrabutylphosphonium threonate,CCCC[P+](CCCC)(CCCC)CCCC.CC(C(C(=O)[O-])N)O,CC(O)C(N)C(=O)[O-].CCCC[P+](CCCC)(CCCC)CCCC,25,1,360,25
343.15,0.1,0.152,Training,tetrabutylphosphonium threonate,CCCC[P+](CCCC)(CCCC)CCCC.CC(C(C(=O)[O-])N)O,C([P+](CCCC)(CCCC)CCCC)CCC.NC(C(C)O)C(=O)[O-],25,1,360,25
343.15,0.1,0.152,Training,tetrabutylphosphonium threonate,CCCC[P+](CCCC)(CCCC)CCCC.CC(C(C(=O)[O-])N)O,C(CC[P+](CCCC)(CCCC)CCCC)C.NC(C(=O)[O-])C(O)C,25,1,360,25
343.15,0.1,0.152,Training,tetrabutylphosphonium threonate,CCCC[P+](CCCC)(CCCC)CCCC.CC(C(C(=O)[O-])N)O,C(C(N)C([O-])=O)(O)C.C(CC[P+](CCCC)(CCCC)CCCC)C,25,1,360,25
343.15,0.1,0.152,Training,tetrabutylphosphonium threonate,CCCC[P+](CCCC)(CCCC)CCCC.CC(C(C(=O)[O-])N)O,C(CC)C[P+](CCCC)(CCCC)CCCC.OC(C(N)C(=O)[O-])C,25,1,360,25
343.15,0.1,0.152,Training,tetrabutylphosphonium threonate,CCCC[P+](CCCC)(CCCC)CCCC.CC(C(C(=O)[O-])N)O,C(C)CC[P+](CCCC)(CCCC)CCCC.O=C([O-])C(N)C(O)C,25,1,360,25
343.15,0.1,0.152,Training,tetrabutylphosphonium threonate,CCCC[P+](CCCC)(CCCC)CCCC.CC(C(C(=O)[O-])N)O,C(C(N)C(C)O)([O-])=O.CCCC[P+](CCCC)(CCCC)CCCC,25,1,360,25
343.15,0.1,0.152,Training,tetrabutylphosphonium threonate,CCCC[P+](CCCC)(CCCC)CCCC.CC(C(C(=O)[O-])N)O,CCCC[P+](CCCC)(CCCC)CCCC.OC(C(C(=O)[O-])N)C,25,1,360,25
343.15,0.1,0.152,Training,tetrabutylphosphonium threonate,CCCC[P+](CCCC)(CCCC)CCCC.CC(C(C(=O)[O-])N)O,CCCC[P+](CCCC)(CCCC)CCCC.O=C([O-])C(C(O)C)N,25,1,360,25
343.15,0.1,0.152,Training,tetrabutylphosphonium threonate,CCCC[P+](CCCC)(CCCC)CCCC.CC(C(C(=O)[O-])N)O,C(C[P+](CCCC)(CCCC)CCCC)CC.OC(C)C(N)C([O-])=O,25,1,360,25
353.15,0.1,0.151,Training,tetrabutylphosphonium threonate,CCCC[P+](CCCC)(CCCC)CCCC.CC(C(C(=O)[O-])N)O,CC(O)C(N)C(=O)[O-].CCCC[P+](CCCC)(CCCC)CCCC,25,1,361,25
353.15,0.1,0.151,Training,tetrabutylphosphonium threonate,CCCC[P+](CCCC)(CCCC)CCCC.CC(C(C(=O)[O-])N)O,C(C[P+](CCCC)(CCCC)CCCC)CC.CC(C(N)C(=O)[O-])O,25,1,361,25
353.15,0.1,0.151,Training,tetrabutylphosphonium threonate,CCCC[P+](CCCC)(CCCC)CCCC.CC(C(C(=O)[O-])N)O,CCCC[P+](CCCC)(CCCC)CCCC.NC(C(O)C)C(=O)[O-],25,1,361,25
353.15,0.1,0.151,Training,tetrabutylphosphonium threonate,CCCC[P+](CCCC)(CCCC)CCCC.CC(C(C(=O)[O-])N)O,C(CC[P+](CCCC)(CCCC)CCCC)C.O=C(C(C(C)O)N)[O-],25,1,361,25
353.15,0.1,0.151,Training,tetrabutylphosphonium threonate,CCCC[P+](CCCC)(CCCC)CCCC.CC(C(C(=O)[O-])N)O,C(N)(C(O)C)C(=O)[O-].CCCC[P+](CCCC)(CCCC)CCCC,25,1,361,25
353.15,0.1,0.151,Training,tetrabutylphosphonium threonate,CCCC[P+](CCCC)(CCCC)CCCC.CC(C(C(=O)[O-])N)O,C(C)CC[P+](CCCC)(CCCC)CCCC.OC(C)C(C([O-])=O)N,25,1,361,25
353.15,0.1,0.151,Training,tetrabutylphosphonium threonate,CCCC[P+](CCCC)(CCCC)CCCC.CC(C(C(=O)[O-])N)O,C(N)(C(O)C)C([O-])=O.C([P+](CCCC)(CCCC)CCCC)CCC,25,1,361,25
353.15,0.1,0.151,Training,tetrabutylphosphonium threonate,CCCC[P+](CCCC)(CCCC)CCCC.CC(C(C(=O)[O-])N)O,C(CCC)[P+](CCCC)(CCCC)CCCC.O=C(C(C(O)C)N)[O-],25,1,361,25
353.15,0.1,0.151,Training,tetrabutylphosphonium threonate,CCCC[P+](CCCC)(CCCC)CCCC.CC(C(C(=O)[O-])N)O,C(C(C([O-])=O)N)(C)O.C(C)CC[P+](CCCC)(CCCC)CCCC,25,1,361,25
353.15,0.1,0.151,Training,tetrabutylphosphonium threonate,CCCC[P+](CCCC)(CCCC)CCCC.CC(C(C(=O)[O-])N)O,C(C(C(C)O)N)([O-])=O.C(CC[P+](CCCC)(CCCC)CCCC)C,25,1,361,25
298.15,0.1,0.154,Testing,tetrabutylphosphonium prolinate,CCCC[P+](CCCC)(CCCC)CCCC.C1CC(NC1)C(=O)[O-],CCCC[P+](CCCC)(CCCC)CCCC.O=C([O-])C1CCCN1,26,1,362,26
298.15,0.1,0.154,Testing,tetrabutylphosphonium prolinate,CCCC[P+](CCCC)(CCCC)CCCC.C1CC(NC1)C(=O)[O-],C(C)CC[P+](CCCC)(CCCC)CCCC.C([O-])(C1CCCN1)=O,26,1,362,26
298.15,0.1,0.154,Testing,tetrabutylphosphonium prolinate,CCCC[P+](CCCC)(CCCC)CCCC.C1CC(NC1)C(=O)[O-],C(CCC)[P+](CCCC)(CCCC)CCCC.[O-]C(C1CCCN1)=O,26,1,362,26
298.15,0.1,0.154,Testing,tetrabutylphosphonium prolinate,CCCC[P+](CCCC)(CCCC)CCCC.C1CC(NC1)C(=O)[O-],C1CNC(C1)C([O-])=O.CCCC[P+](CCCC)(CCCC)CCCC,26,1,362,26
298.15,0.1,0.154,Testing,tetrabutylphosphonium prolinate,CCCC[P+](CCCC)(CCCC)CCCC.C1CC(NC1)C(=O)[O-],CCCC[P+](CCCC)(CCCC)CCCC.O=C(C1CCCN1)[O-],26,1,362,26
298.15,0.1,0.154,Testing,tetrabutylphosphonium prolinate,CCCC[P+](CCCC)(CCCC)CCCC.C1CC(NC1)C(=O)[O-],C(=O)(C1CCCN1)[O-].C([P+](CCCC)(CCCC)CCCC)CCC,26,1,362,26
298.15,0.1,0.154,Testing,tetrabutylphosphonium prolinate,CCCC[P+](CCCC)(CCCC)CCCC.C1CC(NC1)C(=O)[O-],CCCC[P+](CCCC)(CCCC)CCCC.N1CCCC1C([O-])=O,26,1,362,26
298.15,0.1,0.154,Testing,tetrabutylphosphonium prolinate,CCCC[P+](CCCC)(CCCC)CCCC.C1CC(NC1)C(=O)[O-],C(CC)C[P+](CCCC)(CCCC)CCCC.N1C(CCC1)C([O-])=O,26,1,362,26
298.15,0.1,0.154,Testing,tetrabutylphosphonium prolinate,CCCC[P+](CCCC)(CCCC)CCCC.C1CC(NC1)C(=O)[O-],C1CCNC1C(=O)[O-].CCCC[P+](CCCC)(CCCC)CCCC,26,1,362,26
298.15,0.1,0.154,Testing,tetrabutylphosphonium prolinate,CCCC[P+](CCCC)(CCCC)CCCC.C1CC(NC1)C(=O)[O-],CCCC[P+](CCCC)(CCCC)CCCC.O=C(C1NCCC1)[O-],26,1,362,26
303.15,0.1,0.153,Training,tetrabutylphosphonium prolinate,CCCC[P+](CCCC)(CCCC)CCCC.C1CC(NC1)C(=O)[O-],CCCC[P+](CCCC)(CCCC)CCCC.O=C([O-])C1CCCN1,26,1,363,26
303.15,0.1,0.153,Training,tetrabutylphosphonium prolinate,CCCC[P+](CCCC)(CCCC)CCCC.C1CC(NC1)C(=O)[O-],C([P+](CCCC)(CCCC)CCCC)CCC.[O-]C(C1NCCC1)=O,26,1,363,26
303.15,0.1,0.153,Training,tetrabutylphosphonium prolinate,CCCC[P+](CCCC)(CCCC)CCCC.C1CC(NC1)C(=O)[O-],C(CCC)[P+](CCCC)(CCCC)CCCC.C1CC(NC1)C([O-])=O,26,1,363,26
303.15,0.1,0.153,Training,tetrabutylphosphonium prolinate,CCCC[P+](CCCC)(CCCC)CCCC.C1CC(NC1)C(=O)[O-],C(CCC)[P+](CCCC)(CCCC)CCCC.N1CCCC1C([O-])=O,26,1,363,26
303.15,0.1,0.153,Training,tetrabutylphosphonium prolinate,CCCC[P+](CCCC)(CCCC)CCCC.C1CC(NC1)C(=O)[O-],C(C)CC[P+](CCCC)(CCCC)CCCC.C1C(C([O-])=O)NCC1,26,1,363,26
303.15,0.1,0.153,Training,tetrabutylphosphonium prolinate,CCCC[P+](CCCC)(CCCC)CCCC.C1CC(NC1)C(=O)[O-],C([P+](CCCC)(CCCC)CCCC)CCC.C1CC(C([O-])=O)NC1,26,1,363,26
303.15,0.1,0.153,Training,tetrabutylphosphonium prolinate,CCCC[P+](CCCC)(CCCC)CCCC.C1CC(NC1)C(=O)[O-],C([P+](CCCC)(CCCC)CCCC)CCC.O=C(C1CCCN1)[O-],26,1,363,26
303.15,0.1,0.153,Training,tetrabutylphosphonium prolinate,CCCC[P+](CCCC)(CCCC)CCCC.C1CC(NC1)C(=O)[O-],C1CNC(C([O-])=O)C1.CCCC[P+](CCCC)(CCCC)CCCC,26,1,363,26
303.15,0.1,0.153,Training,tetrabutylphosphonium prolinate,CCCC[P+](CCCC)(CCCC)CCCC.C1CC(NC1)C(=O)[O-],C([P+](CCCC)(CCCC)CCCC)CCC.C1(C([O-])=O)CCCN1,26,1,363,26
303.15,0.1,0.153,Training,tetrabutylphosphonium prolinate,CCCC[P+](CCCC)(CCCC)CCCC.C1CC(NC1)C(=O)[O-],C(C)CC[P+](CCCC)(CCCC)CCCC.C1NC(CC1)C([O-])=O,26,1,363,26
313.15,0.1,0.152,Testing,tetrabutylphosphonium prolinate,CCCC[P+](CCCC)(CCCC)CCCC.C1CC(NC1)C(=O)[O-],CCCC[P+](CCCC)(CCCC)CCCC.O=C([O-])C1CCCN1,26,1,364,26
313.15,0.1,0.152,Testing,tetrabutylphosphonium prolinate,CCCC[P+](CCCC)(CCCC)CCCC.C1CC(NC1)C(=O)[O-],C(CCC)[P+](CCCC)(CCCC)CCCC.C1CCNC1C(=O)[O-],26,1,364,26
313.15,0.1,0.152,Testing,tetrabutylphosphonium prolinate,CCCC[P+](CCCC)(CCCC)CCCC.C1CC(NC1)C(=O)[O-],CCCC[P+](CCCC)(CCCC)CCCC.O=C(C1NCCC1)[O-],26,1,364,26
313.15,0.1,0.152,Testing,tetrabutylphosphonium prolinate,CCCC[P+](CCCC)(CCCC)CCCC.C1CC(NC1)C(=O)[O-],C([P+](CCCC)(CCCC)CCCC)CCC.[O-]C(=O)C1CCCN1,26,1,364,26
313.15,0.1,0.152,Testing,tetrabutylphosphonium prolinate,CCCC[P+](CCCC)(CCCC)CCCC.C1CC(NC1)C(=O)[O-],C(CC)C[P+](CCCC)(CCCC)CCCC.N1C(CCC1)C([O-])=O,26,1,364,26
313.15,0.1,0.152,Testing,tetrabutylphosphonium prolinate,CCCC[P+](CCCC)(CCCC)CCCC.C1CC(NC1)C(=O)[O-],C(CC)C[P+](CCCC)(CCCC)CCCC.O=C([O-])C1CCCN1,26,1,364,26
313.15,0.1,0.152,Testing,tetrabutylphosphonium prolinate,CCCC[P+](CCCC)(CCCC)CCCC.C1CC(NC1)C(=O)[O-],C1CC(NC1)C(=O)[O-].CCCC[P+](CCCC)(CCCC)CCCC,26,1,364,26
313.15,0.1,0.152,Testing,tetrabutylphosphonium prolinate,CCCC[P+](CCCC)(CCCC)CCCC.C1CC(NC1)C(=O)[O-],C(C)CC[P+](CCCC)(CCCC)CCCC.C([O-])(=O)C1NCCC1,26,1,364,26
313.15,0.1,0.152,Testing,tetrabutylphosphonium prolinate,CCCC[P+](CCCC)(CCCC)CCCC.C1CC(NC1)C(=O)[O-],C1CCNC1C(=O)[O-].CCCC[P+](CCCC)(CCCC)CCCC,26,1,364,26
323.15,0.1,0.151,Training,tetrabutylphosphonium prolinate,CCCC[P+](CCCC)(CCCC)CCCC.C1CC(NC1)C(=O)[O-],CCCC[P+](CCCC)(CCCC)CCCC.O=C([O-])C1CCCN1,26,1,365,26
323.15,0.1,0.151,Training,tetrabutylphosphonium prolinate,CCCC[P+](CCCC)(CCCC)CCCC.C1CC(NC1)C(=O)[O-],C(C)CC[P+](CCCC)(CCCC)CCCC.C1C(C(=O)[O-])NCC1,26,1,365,26
323.15,0.1,0.151,Training,tetrabutylphosphonium prolinate,CCCC[P+](CCCC)(CCCC)CCCC.C1CC(NC1)C(=O)[O-],C([O-])(C1CCCN1)=O.C([P+](CCCC)(CCCC)CCCC)CCC,26,1,365,26
323.15,0.1,0.151,Training,tetrabutylphosphonium prolinate,CCCC[P+](CCCC)(CCCC)CCCC.C1CC(NC1)C(=O)[O-],C(CCC)[P+](CCCC)(CCCC)CCCC.C1NC(CC1)C([O-])=O,26,1,365,26
323.15,0.1,0.151,Training,tetrabutylphosphonium prolinate,CCCC[P+](CCCC)(CCCC)CCCC.C1CC(NC1)C(=O)[O-],C1C(NCC1)C([O-])=O.CCCC[P+](CCCC)(CCCC)CCCC,26,1,365,26
323.15,0.1,0.151,Training,tetrabutylphosphonium prolinate,CCCC[P+](CCCC)(CCCC)CCCC.C1CC(NC1)C(=O)[O-],C(C)CC[P+](CCCC)(CCCC)CCCC.N1CCCC1C(=O)[O-],26,1,365,26
323.15,0.1,0.151,Training,tetrabutylphosphonium prolinate,CCCC[P+](CCCC)(CCCC)CCCC.C1CC(NC1)C(=O)[O-],C([P+](CCCC)(CCCC)CCCC)CCC.O=C(C1NCCC1)[O-],26,1,365,26
323.15,0.1,0.151,Training,tetrabutylphosphonium prolinate,CCCC[P+](CCCC)(CCCC)CCCC.C1CC(NC1)C(=O)[O-],C(C)CC[P+](CCCC)(CCCC)CCCC.[O-]C(C1CCCN1)=O,26,1,365,26
323.15,0.1,0.151,Training,tetrabutylphosphonium prolinate,CCCC[P+](CCCC)(CCCC)CCCC.C1CC(NC1)C(=O)[O-],C(C[P+](CCCC)(CCCC)CCCC)CC.C1C(NCC1)C([O-])=O,26,1,365,26
323.15,0.1,0.151,Training,tetrabutylphosphonium prolinate,CCCC[P+](CCCC)(CCCC)CCCC.C1CC(NC1)C(=O)[O-],C(CC)C[P+](CCCC)(CCCC)CCCC.C([O-])(=O)C1NCCC1,26,1,365,26
333.15,0.1,0.15,Training,tetrabutylphosphonium prolinate,CCCC[P+](CCCC)(CCCC)CCCC.C1CC(NC1)C(=O)[O-],CCCC[P+](CCCC)(CCCC)CCCC.O=C([O-])C1CCCN1,26,1,366,26
333.15,0.1,0.15,Training,tetrabutylphosphonium prolinate,CCCC[P+](CCCC)(CCCC)CCCC.C1CC(NC1)C(=O)[O-],C([P+](CCCC)(CCCC)CCCC)CCC.C1CCNC1C([O-])=O,26,1,366,26
333.15,0.1,0.15,Training,tetrabutylphosphonium prolinate,CCCC[P+](CCCC)(CCCC)CCCC.C1CC(NC1)C(=O)[O-],C(C[P+](CCCC)(CCCC)CCCC)CC.C1(C(=O)[O-])NCCC1,26,1,366,26
333.15,0.1,0.15,Training,tetrabutylphosphonium prolinate,CCCC[P+](CCCC)(CCCC)CCCC.C1CC(NC1)C(=O)[O-],C(=O)(C1CCCN1)[O-].CCCC[P+](CCCC)(CCCC)CCCC,26,1,366,26
333.15,0.1,0.15,Training,tetrabutylphosphonium prolinate,CCCC[P+](CCCC)(CCCC)CCCC.C1CC(NC1)C(=O)[O-],C(CC[P+](CCCC)(CCCC)CCCC)C.O=C(C1CCCN1)[O-],26,1,366,26
333.15,0.1,0.15,Training,tetrabutylphosphonium prolinate,CCCC[P+](CCCC)(CCCC)CCCC.C1CC(NC1)C(=O)[O-],C(=O)([O-])C1CCCN1.C(CCC)[P+](CCCC)(CCCC)CCCC,26,1,366,26
333.15,0.1,0.15,Training,tetrabutylphosphonium prolinate,CCCC[P+](CCCC)(CCCC)CCCC.C1CC(NC1)C(=O)[O-],C1CNC(C1)C([O-])=O.CCCC[P+](CCCC)(CCCC)CCCC,26,1,366,26
333.15,0.1,0.15,Training,tetrabutylphosphonium prolinate,CCCC[P+](CCCC)(CCCC)CCCC.C1CC(NC1)C(=O)[O-],C(C)CC[P+](CCCC)(CCCC)CCCC.C1CNC(C(=O)[O-])C1,26,1,366,26
333.15,0.1,0.15,Training,tetrabutylphosphonium prolinate,CCCC[P+](CCCC)(CCCC)CCCC.C1CC(NC1)C(=O)[O-],C(CC)C[P+](CCCC)(CCCC)CCCC.C1C(C(=O)[O-])NCC1,26,1,366,26
333.15,0.1,0.15,Training,tetrabutylphosphonium prolinate,CCCC[P+](CCCC)(CCCC)CCCC.C1CC(NC1)C(=O)[O-],C(CC)C[P+](CCCC)(CCCC)CCCC.C1CNC(C1)C(=O)[O-],26,1,366,26
343.15,0.1,0.149,Testing,tetrabutylphosphonium prolinate,CCCC[P+](CCCC)(CCCC)CCCC.C1CC(NC1)C(=O)[O-],CCCC[P+](CCCC)(CCCC)CCCC.O=C([O-])C1CCCN1,26,1,367,26
343.15,0.1,0.149,Testing,tetrabutylphosphonium prolinate,CCCC[P+](CCCC)(CCCC)CCCC.C1CC(NC1)C(=O)[O-],C(CCC)[P+](CCCC)(CCCC)CCCC.N1C(C(=O)[O-])CCC1,26,1,367,26
343.15,0.1,0.149,Testing,tetrabutylphosphonium prolinate,CCCC[P+](CCCC)(CCCC)CCCC.C1CC(NC1)C(=O)[O-],C(CC[P+](CCCC)(CCCC)CCCC)C.C1NC(CC1)C([O-])=O,26,1,367,26
343.15,0.1,0.149,Testing,tetrabutylphosphonium prolinate,CCCC[P+](CCCC)(CCCC)CCCC.C1CC(NC1)C(=O)[O-],C1CC(C(=O)[O-])NC1.[P+](CCCC)(CCCC)(CCCC)CCCC,26,1,367,26
343.15,0.1,0.149,Testing,tetrabutylphosphonium prolinate,CCCC[P+](CCCC)(CCCC)CCCC.C1CC(NC1)C(=O)[O-],C(CCC)[P+](CCCC)(CCCC)CCCC.O=C(C1CCCN1)[O-],26,1,367,26
343.15,0.1,0.149,Testing,tetrabutylphosphonium prolinate,CCCC[P+](CCCC)(CCCC)CCCC.C1CC(NC1)C(=O)[O-],CCCC[P+](CCCC)(CCCC)CCCC.N1C(C([O-])=O)CCC1,26,1,367,26
343.15,0.1,0.149,Testing,tetrabutylphosphonium prolinate,CCCC[P+](CCCC)(CCCC)CCCC.C1CC(NC1)C(=O)[O-],C(CC[P+](CCCC)(CCCC)CCCC)C.C1(C(=O)[O-])CCCN1,26,1,367,26
343.15,0.1,0.149,Testing,tetrabutylphosphonium prolinate,CCCC[P+](CCCC)(CCCC)CCCC.C1CC(NC1)C(=O)[O-],C1NC(CC1)C([O-])=O.CCCC[P+](CCCC)(CCCC)CCCC,26,1,367,26
343.15,0.1,0.149,Testing,tetrabutylphosphonium prolinate,CCCC[P+](CCCC)(CCCC)CCCC.C1CC(NC1)C(=O)[O-],C([O-])(C1NCCC1)=O.CCCC[P+](CCCC)(CCCC)CCCC,26,1,367,26
343.15,0.1,0.149,Testing,tetrabutylphosphonium prolinate,CCCC[P+](CCCC)(CCCC)CCCC.C1CC(NC1)C(=O)[O-],C([O-])(C1CCCN1)=O.C([P+](CCCC)(CCCC)CCCC)CCC,26,1,367,26
353.15,0.1,0.148,Training,tetrabutylphosphonium prolinate,CCCC[P+](CCCC)(CCCC)CCCC.C1CC(NC1)C(=O)[O-],CCCC[P+](CCCC)(CCCC)CCCC.O=C([O-])C1CCCN1,26,1,368,26
353.15,0.1,0.148,Training,tetrabutylphosphonium prolinate,CCCC[P+](CCCC)(CCCC)CCCC.C1CC(NC1)C(=O)[O-],C(CCC)[P+](CCCC)(CCCC)CCCC.N1CCCC1C(=O)[O-],26,1,368,26
353.15,0.1,0.148,Training,tetrabutylphosphonium prolinate,CCCC[P+](CCCC)(CCCC)CCCC.C1CC(NC1)C(=O)[O-],C([O-])(=O)C1NCCC1.CCCC[P+](CCCC)(CCCC)CCCC,26,1,368,26