T/K,P/MPa,TC/W m-1 K-1,Data type,Name,SMILES,Normalized SMILES,index,P/bar,RANDOM,IL
273.15,0.1,0.1209,Testing,"1,3-dibutylimidazolium bis(trifluoromethylsulfonyl)imide",CCCCN1C=C[N+](=C1)CCCC.C(F)(F)(F)S(=O)(=O)[N-]S(=O)(=O)C(F)(F)F,C(S(=O)([N-]S(=O)(C(F)(F)F)=O)=O)(F)(F)F.C([n+]1ccn(CCCC)c1)CCC,14,1,270,14
273.15,0.1,0.1209,Testing,"1,3-dibutylimidazolium bis(trifluoromethylsulfonyl)imide",CCCCN1C=C[N+](=C1)CCCC.C(F)(F)(F)S(=O)(=O)[N-]S(=O)(=O)C(F)(F)F,C(CCC)[n+]1cn(CCCC)cc1.S(=O)([N-]S(=O)(C(F)(F)F)=O)(C(F)(F)F)=O,14,1,270,14
273.15,0.1,0.1209,Testing,"1,3-dibutylimidazolium bis(trifluoromethylsulfonyl)imide",CCCCN1C=C[N+](=C1)CCCC.C(F)(F)(F)S(=O)(=O)[N-]S(=O)(=O)C(F)(F)F,C(C)CC[n+]1cn(CCCC)cc1.C(S(=O)([N-]S(=O)(C(F)(F)F)=O)=O)(F)(F)F,14,1,270,14
273.15,0.1,0.1209,Testing,"1,3-dibutylimidazolium bis(trifluoromethylsulfonyl)imide",CCCCN1C=C[N+](=C1)CCCC.C(F)(F)(F)S(=O)(=O)[N-]S(=O)(=O)C(F)(F)F,C(S([N-]S(C(F)(F)F)(=O)=O)(=O)=O)(F)(F)F.n1(CCCC)cc[n+](c1)CCCC,14,1,270,14
273.15,0.1,0.1209,Testing,"1,3-dibutylimidazolium bis(trifluoromethylsulfonyl)imide",CCCCN1C=C[N+](=C1)CCCC.C(F)(F)(F)S(=O)(=O)[N-]S(=O)(=O)C(F)(F)F,FC(S(=O)(=O)[N-]S(=O)(C(F)(F)F)=O)(F)F.n1(c[n+](cc1)CCCC)CCCC,14,1,270,14
273.15,0.1,0.1209,Testing,"1,3-dibutylimidazolium bis(trifluoromethylsulfonyl)imide",CCCCN1C=C[N+](=C1)CCCC.C(F)(F)(F)S(=O)(=O)[N-]S(=O)(=O)C(F)(F)F,C(S([N-]S(=O)(C(F)(F)F)=O)(=O)=O)(F)(F)F.CCCCn1cc[n+](CCCC)c1,14,1,270,14
273.15,0.1,0.1209,Testing,"1,3-dibutylimidazolium bis(trifluoromethylsulfonyl)imide",CCCCN1C=C[N+](=C1)CCCC.C(F)(F)(F)S(=O)(=O)[N-]S(=O)(=O)C(F)(F)F,FC(F)(S(=O)([N-]S(=O)(C(F)(F)F)=O)=O)F.c1c[n+](cn1CCCC)CCCC,14,1,270,14
273.15,0.1,0.1209,Testing,"1,3-dibutylimidazolium bis(trifluoromethylsulfonyl)imide",CCCCN1C=C[N+](=C1)CCCC.C(F)(F)(F)S(=O)(=O)[N-]S(=O)(=O)C(F)(F)F,S(C(F)(F)F)(=O)(=O)[N-]S(=O)(C(F)(F)F)=O.n1(CCCC)cc[n+](c1)CCCC,14,1,270,14
273.15,0.1,0.1209,Testing,"1,3-dibutylimidazolium bis(trifluoromethylsulfonyl)imide",CCCCN1C=C[N+](=C1)CCCC.C(F)(F)(F)S(=O)(=O)[N-]S(=O)(=O)C(F)(F)F,C(C)CCn1c[n+](cc1)CCCC.C(F)(F)(S([N-]S(C(F)(F)F)(=O)=O)(=O)=O)F,14,1,270,14
283.15,0.1,0.1203,Training,"1,3-dibutylimidazolium bis(trifluoromethylsulfonyl)imide",CCCCN1C=C[N+](=C1)CCCC.C(F)(F)(F)S(=O)(=O)[N-]S(=O)(=O)C(F)(F)F,CCCCn1cc[n+](CCCC)c1.O=S(=O)([N-]S(=O)(=O)C(F)(F)F)C(F)(F)F,14,1,271,14
283.15,0.1,0.1203,Training,"1,3-dibutylimidazolium bis(trifluoromethylsulfonyl)imide",CCCCN1C=C[N+](=C1)CCCC.C(F)(F)(F)S(=O)(=O)[N-]S(=O)(=O)C(F)(F)F,C(CC[n+]1ccn(CCCC)c1)C.FC(F)(S([N-]S(=O)(=O)C(F)(F)F)(=O)=O)F,14,1,271,14
283.15,0.1,0.1203,Training,"1,3-dibutylimidazolium bis(trifluoromethylsulfonyl)imide",CCCCN1C=C[N+](=C1)CCCC.C(F)(F)(F)S(=O)(=O)[N-]S(=O)(=O)C(F)(F)F,O=S(=O)([N-]S(=O)(=O)C(F)(F)F)C(F)(F)F.c1[n+](CCCC)ccn1CCCC,14,1,271,14
283.15,0.1,0.1203,Training,"1,3-dibutylimidazolium bis(trifluoromethylsulfonyl)imide",CCCCN1C=C[N+](=C1)CCCC.C(F)(F)(F)S(=O)(=O)[N-]S(=O)(=O)C(F)(F)F,C(C)CCn1c[n+](cc1)CCCC.FC(F)(S([N-]S(C(F)(F)F)(=O)=O)(=O)=O)F,14,1,271,14
283.15,0.1,0.1203,Training,"1,3-dibutylimidazolium bis(trifluoromethylsulfonyl)imide",CCCCN1C=C[N+](=C1)CCCC.C(F)(F)(F)S(=O)(=O)[N-]S(=O)(=O)C(F)(F)F,C(CC)C[n+]1ccn(c1)CCCC.FC(F)(F)S(=O)([N-]S(=O)(C(F)(F)F)=O)=O,14,1,271,14
283.15,0.1,0.1203,Training,"1,3-dibutylimidazolium bis(trifluoromethylsulfonyl)imide",CCCCN1C=C[N+](=C1)CCCC.C(F)(F)(F)S(=O)(=O)[N-]S(=O)(=O)C(F)(F)F,C([n+]1cn(cc1)CCCC)CCC.FC(S(=O)(=O)[N-]S(=O)(C(F)(F)F)=O)(F)F,14,1,271,14
283.15,0.1,0.1203,Training,"1,3-dibutylimidazolium bis(trifluoromethylsulfonyl)imide",CCCCN1C=C[N+](=C1)CCCC.C(F)(F)(F)S(=O)(=O)[N-]S(=O)(=O)C(F)(F)F,C(CCn1c[n+](cc1)CCCC)C.[N-](S(C(F)(F)F)(=O)=O)S(C(F)(F)F)(=O)=O,14,1,271,14
283.15,0.1,0.1203,Training,"1,3-dibutylimidazolium bis(trifluoromethylsulfonyl)imide",CCCCN1C=C[N+](=C1)CCCC.C(F)(F)(F)S(=O)(=O)[N-]S(=O)(=O)C(F)(F)F,C(Cn1cc[n+](CCCC)c1)CC.O=S(C(F)(F)F)([N-]S(=O)(=O)C(F)(F)F)=O,14,1,271,14
283.15,0.1,0.1203,Training,"1,3-dibutylimidazolium bis(trifluoromethylsulfonyl)imide",CCCCN1C=C[N+](=C1)CCCC.C(F)(F)(F)S(=O)(=O)[N-]S(=O)(=O)C(F)(F)F,CCCC[n+]1cn(CCCC)cc1.FC(F)(S([N-]S(C(F)(F)F)(=O)=O)(=O)=O)F,14,1,271,14
283.15,0.1,0.1203,Training,"1,3-dibutylimidazolium bis(trifluoromethylsulfonyl)imide",CCCCN1C=C[N+](=C1)CCCC.C(F)(F)(F)S(=O)(=O)[N-]S(=O)(=O)C(F)(F)F,C(C)CC[n+]1cn(cc1)CCCC.FC(F)(F)S(=O)(=O)[N-]S(=O)(C(F)(F)F)=O,14,1,271,14
293.15,0.1,0.1188,Training,"1,3-dibutylimidazolium bis(trifluoromethylsulfonyl)imide",CCCCN1C=C[N+](=C1)CCCC.C(F)(F)(F)S(=O)(=O)[N-]S(=O)(=O)C(F)(F)F,CCCCn1cc[n+](CCCC)c1.O=S(=O)([N-]S(=O)(=O)C(F)(F)F)C(F)(F)F,14,1,272,14
293.15,0.1,0.1188,Training,"1,3-dibutylimidazolium bis(trifluoromethylsulfonyl)imide",CCCCN1C=C[N+](=C1)CCCC.C(F)(F)(F)S(=O)(=O)[N-]S(=O)(=O)C(F)(F)F,CCCCn1cc[n+](CCCC)c1.FC(S([N-]S(=O)(C(F)(F)F)=O)(=O)=O)(F)F,14,1,272,14
293.15,0.1,0.1188,Training,"1,3-dibutylimidazolium bis(trifluoromethylsulfonyl)imide",CCCCN1C=C[N+](=C1)CCCC.C(F)(F)(F)S(=O)(=O)[N-]S(=O)(=O)C(F)(F)F,O=S([N-]S(C(F)(F)F)(=O)=O)(C(F)(F)F)=O.c1c[n+](cn1CCCC)CCCC,14,1,272,14
293.15,0.1,0.1188,Training,"1,3-dibutylimidazolium bis(trifluoromethylsulfonyl)imide",CCCCN1C=C[N+](=C1)CCCC.C(F)(F)(F)S(=O)(=O)[N-]S(=O)(=O)C(F)(F)F,C(CC)Cn1c[n+](CCCC)cc1.FC(F)(S(=O)([N-]S(C(F)(F)F)(=O)=O)=O)F,14,1,272,14
293.15,0.1,0.1188,Training,"1,3-dibutylimidazolium bis(trifluoromethylsulfonyl)imide",CCCCN1C=C[N+](=C1)CCCC.C(F)(F)(F)S(=O)(=O)[N-]S(=O)(=O)C(F)(F)F,FC(S(=O)(=O)[N-]S(=O)(C(F)(F)F)=O)(F)F.c1cn(c[n+]1CCCC)CCCC,14,1,272,14
293.15,0.1,0.1188,Training,"1,3-dibutylimidazolium bis(trifluoromethylsulfonyl)imide",CCCCN1C=C[N+](=C1)CCCC.C(F)(F)(F)S(=O)(=O)[N-]S(=O)(=O)C(F)(F)F,C(C)CC[n+]1cn(CCCC)cc1.O=S([N-]S(=O)(=O)C(F)(F)F)(C(F)(F)F)=O,14,1,272,14
293.15,0.1,0.1188,Training,"1,3-dibutylimidazolium bis(trifluoromethylsulfonyl)imide",CCCCN1C=C[N+](=C1)CCCC.C(F)(F)(F)S(=O)(=O)[N-]S(=O)(=O)C(F)(F)F,C(CCn1cc[n+](CCCC)c1)C.FC(S(=O)([N-]S(=O)(C(F)(F)F)=O)=O)(F)F,14,1,272,14
293.15,0.1,0.1188,Training,"1,3-dibutylimidazolium bis(trifluoromethylsulfonyl)imide",CCCCN1C=C[N+](=C1)CCCC.C(F)(F)(F)S(=O)(=O)[N-]S(=O)(=O)C(F)(F)F,C([n+]1cn(cc1)CCCC)CCC.FC(F)(F)S(=O)(=O)[N-]S(=O)(C(F)(F)F)=O,14,1,272,14
293.15,0.1,0.1188,Training,"1,3-dibutylimidazolium bis(trifluoromethylsulfonyl)imide",CCCCN1C=C[N+](=C1)CCCC.C(F)(F)(F)S(=O)(=O)[N-]S(=O)(=O)C(F)(F)F,FC(F)(F)S(=O)(=O)[N-]S(C(F)(F)F)(=O)=O.[n+]1(CCCC)cn(cc1)CCCC,14,1,272,14
293.15,0.1,0.1188,Training,"1,3-dibutylimidazolium bis(trifluoromethylsulfonyl)imide",CCCCN1C=C[N+](=C1)CCCC.C(F)(F)(F)S(=O)(=O)[N-]S(=O)(=O)C(F)(F)F,CCCC[n+]1ccn(c1)CCCC.FC(F)(S(=O)(=O)[N-]S(=O)(C(F)(F)F)=O)F,14,1,272,14
303.15,0.1,0.1198,Testing,"1,3-dibutylimidazolium bis(trifluoromethylsulfonyl)imide",CCCCN1C=C[N+](=C1)CCCC.C(F)(F)(F)S(=O)(=O)[N-]S(=O)(=O)C(F)(F)F,CCCCn1cc[n+](CCCC)c1.O=S(=O)([N-]S(=O)(=O)C(F)(F)F)C(F)(F)F,14,1,273,14
303.15,0.1,0.1198,Testing,"1,3-dibutylimidazolium bis(trifluoromethylsulfonyl)imide",CCCCN1C=C[N+](=C1)CCCC.C(F)(F)(F)S(=O)(=O)[N-]S(=O)(=O)C(F)(F)F,S([N-]S(=O)(C(F)(F)F)=O)(=O)(C(F)(F)F)=O.[n+]1(CCCC)ccn(CCCC)c1,14,1,273,14
303.15,0.1,0.1198,Testing,"1,3-dibutylimidazolium bis(trifluoromethylsulfonyl)imide",CCCCN1C=C[N+](=C1)CCCC.C(F)(F)(F)S(=O)(=O)[N-]S(=O)(=O)C(F)(F)F,C(F)(S(=O)(=O)[N-]S(C(F)(F)F)(=O)=O)(F)F.c1cn(c[n+]1CCCC)CCCC,14,1,273,14
303.15,0.1,0.1198,Testing,"1,3-dibutylimidazolium bis(trifluoromethylsulfonyl)imide",CCCCN1C=C[N+](=C1)CCCC.C(F)(F)(F)S(=O)(=O)[N-]S(=O)(=O)C(F)(F)F,S(C(F)(F)F)(=O)(=O)[N-]S(=O)(=O)C(F)(F)F.[n+]1(cn(CCCC)cc1)CCCC,14,1,273,14
303.15,0.1,0.1198,Testing,"1,3-dibutylimidazolium bis(trifluoromethylsulfonyl)imide",CCCCN1C=C[N+](=C1)CCCC.C(F)(F)(F)S(=O)(=O)[N-]S(=O)(=O)C(F)(F)F,C(CC)Cn1cc[n+](c1)CCCC.FC(F)(S(=O)(=O)[N-]S(=O)(=O)C(F)(F)F)F,14,1,273,14
303.15,0.1,0.1198,Testing,"1,3-dibutylimidazolium bis(trifluoromethylsulfonyl)imide",CCCCN1C=C[N+](=C1)CCCC.C(F)(F)(F)S(=O)(=O)[N-]S(=O)(=O)C(F)(F)F,C(F)(S(=O)(=O)[N-]S(C(F)(F)F)(=O)=O)(F)F.n1(c[n+](cc1)CCCC)CCCC,14,1,273,14
303.15,0.1,0.1198,Testing,"1,3-dibutylimidazolium bis(trifluoromethylsulfonyl)imide",CCCCN1C=C[N+](=C1)CCCC.C(F)(F)(F)S(=O)(=O)[N-]S(=O)(=O)C(F)(F)F,CCCC[n+]1ccn(CCCC)c1.S(=O)(=O)(C(F)(F)F)[N-]S(=O)(C(F)(F)F)=O,14,1,273,14
303.15,0.1,0.1198,Testing,"1,3-dibutylimidazolium bis(trifluoromethylsulfonyl)imide",CCCCN1C=C[N+](=C1)CCCC.C(F)(F)(F)S(=O)(=O)[N-]S(=O)(=O)C(F)(F)F,C([n+]1cn(cc1)CCCC)CCC.O=S(=O)([N-]S(=O)(C(F)(F)F)=O)C(F)(F)F,14,1,273,14
303.15,0.1,0.1198,Testing,"1,3-dibutylimidazolium bis(trifluoromethylsulfonyl)imide",CCCCN1C=C[N+](=C1)CCCC.C(F)(F)(F)S(=O)(=O)[N-]S(=O)(=O)C(F)(F)F,C(Cn1c[n+](CCCC)cc1)CC.O=S([N-]S(=O)(=O)C(F)(F)F)(=O)C(F)(F)F,14,1,273,14
303.15,0.1,0.1198,Testing,"1,3-dibutylimidazolium bis(trifluoromethylsulfonyl)imide",CCCCN1C=C[N+](=C1)CCCC.C(F)(F)(F)S(=O)(=O)[N-]S(=O)(=O)C(F)(F)F,O=S(C(F)(F)F)([N-]S(=O)(=O)C(F)(F)F)=O.c1n(CCCC)c[n+](CCCC)c1,14,1,273,14
313.15,0.1,0.1176,Training,"1,3-dibutylimidazolium bis(trifluoromethylsulfonyl)imide",CCCCN1C=C[N+](=C1)CCCC.C(F)(F)(F)S(=O)(=O)[N-]S(=O)(=O)C(F)(F)F,CCCCn1cc[n+](CCCC)c1.O=S(=O)([N-]S(=O)(=O)C(F)(F)F)C(F)(F)F,14,1,274,14
313.15,0.1,0.1176,Training,"1,3-dibutylimidazolium bis(trifluoromethylsulfonyl)imide",CCCCN1C=C[N+](=C1)CCCC.C(F)(F)(F)S(=O)(=O)[N-]S(=O)(=O)C(F)(F)F,CCCCn1c[n+](cc1)CCCC.FC(F)(S([N-]S(=O)(=O)C(F)(F)F)(=O)=O)F,14,1,274,14
313.15,0.1,0.1176,Training,"1,3-dibutylimidazolium bis(trifluoromethylsulfonyl)imide",CCCCN1C=C[N+](=C1)CCCC.C(F)(F)(F)S(=O)(=O)[N-]S(=O)(=O)C(F)(F)F,C(CC)Cn1c[n+](cc1)CCCC.O=S(C(F)(F)F)([N-]S(=O)(C(F)(F)F)=O)=O,14,1,274,14
313.15,0.1,0.1176,Training,"1,3-dibutylimidazolium bis(trifluoromethylsulfonyl)imide",CCCCN1C=C[N+](=C1)CCCC.C(F)(F)(F)S(=O)(=O)[N-]S(=O)(=O)C(F)(F)F,O=S(=O)([N-]S(C(F)(F)F)(=O)=O)C(F)(F)F.n1(c[n+](cc1)CCCC)CCCC,14,1,274,14
313.15,0.1,0.1176,Training,"1,3-dibutylimidazolium bis(trifluoromethylsulfonyl)imide",CCCCN1C=C[N+](=C1)CCCC.C(F)(F)(F)S(=O)(=O)[N-]S(=O)(=O)C(F)(F)F,C(CCC)[n+]1ccn(CCCC)c1.C(F)(S([N-]S(=O)(=O)C(F)(F)F)(=O)=O)(F)F,14,1,274,14
313.15,0.1,0.1176,Training,"1,3-dibutylimidazolium bis(trifluoromethylsulfonyl)imide",CCCCN1C=C[N+](=C1)CCCC.C(F)(F)(F)S(=O)(=O)[N-]S(=O)(=O)C(F)(F)F,C(CCC)[n+]1cn(CCCC)cc1.C(S([N-]S(=O)(=O)C(F)(F)F)(=O)=O)(F)(F)F,14,1,274,14
313.15,0.1,0.1176,Training,"1,3-dibutylimidazolium bis(trifluoromethylsulfonyl)imide",CCCCN1C=C[N+](=C1)CCCC.C(F)(F)(F)S(=O)(=O)[N-]S(=O)(=O)C(F)(F)F,C(F)(F)(F)S(=O)(=O)[N-]S(=O)(C(F)(F)F)=O.c1c[n+](cn1CCCC)CCCC,14,1,274,14
313.15,0.1,0.1176,Training,"1,3-dibutylimidazolium bis(trifluoromethylsulfonyl)imide",CCCCN1C=C[N+](=C1)CCCC.C(F)(F)(F)S(=O)(=O)[N-]S(=O)(=O)C(F)(F)F,C(F)(F)(S([N-]S(C(F)(F)F)(=O)=O)(=O)=O)F.CCCCn1c[n+](CCCC)cc1,14,1,274,14
313.15,0.1,0.1176,Training,"1,3-dibutylimidazolium bis(trifluoromethylsulfonyl)imide",CCCCN1C=C[N+](=C1)CCCC.C(F)(F)(F)S(=O)(=O)[N-]S(=O)(=O)C(F)(F)F,FC(F)(F)S(=O)(=O)[N-]S(=O)(C(F)(F)F)=O.c1[n+](cn(c1)CCCC)CCCC,14,1,274,14
313.15,0.1,0.1176,Training,"1,3-dibutylimidazolium bis(trifluoromethylsulfonyl)imide",CCCCN1C=C[N+](=C1)CCCC.C(F)(F)(F)S(=O)(=O)[N-]S(=O)(=O)C(F)(F)F,C(C[n+]1cn(cc1)CCCC)CC.FC(F)(S(=O)(=O)[N-]S(=O)(C(F)(F)F)=O)F,14,1,274,14
323.15,0.1,0.117,Training,"1,3-dibutylimidazolium bis(trifluoromethylsulfonyl)imide",CCCCN1C=C[N+](=C1)CCCC.C(F)(F)(F)S(=O)(=O)[N-]S(=O)(=O)C(F)(F)F,CCCCn1cc[n+](CCCC)c1.O=S(=O)([N-]S(=O)(=O)C(F)(F)F)C(F)(F)F,14,1,275,14
323.15,0.1,0.117,Training,"1,3-dibutylimidazolium bis(trifluoromethylsulfonyl)imide",CCCCN1C=C[N+](=C1)CCCC.C(F)(F)(F)S(=O)(=O)[N-]S(=O)(=O)C(F)(F)F,C(CCC)[n+]1ccn(c1)CCCC.[N-](S(C(F)(F)F)(=O)=O)S(=O)(C(F)(F)F)=O,14,1,275,14
323.15,0.1,0.117,Training,"1,3-dibutylimidazolium bis(trifluoromethylsulfonyl)imide",CCCCN1C=C[N+](=C1)CCCC.C(F)(F)(F)S(=O)(=O)[N-]S(=O)(=O)C(F)(F)F,O=S(C(F)(F)F)([N-]S(C(F)(F)F)(=O)=O)=O.c1cn(c[n+]1CCCC)CCCC,14,1,275,14
323.15,0.1,0.117,Training,"1,3-dibutylimidazolium bis(trifluoromethylsulfonyl)imide",CCCCN1C=C[N+](=C1)CCCC.C(F)(F)(F)S(=O)(=O)[N-]S(=O)(=O)C(F)(F)F,C(C)CC[n+]1cn(cc1)CCCC.FC(F)(S(=O)([N-]S(C(F)(F)F)(=O)=O)=O)F,14,1,275,14
323.15,0.1,0.117,Training,"1,3-dibutylimidazolium bis(trifluoromethylsulfonyl)imide",CCCCN1C=C[N+](=C1)CCCC.C(F)(F)(F)S(=O)(=O)[N-]S(=O)(=O)C(F)(F)F,O=S(=O)(C(F)(F)F)[N-]S(=O)(C(F)(F)F)=O.[n+]1(CCCC)cn(CCCC)cc1,14,1,275,14
323.15,0.1,0.117,Training,"1,3-dibutylimidazolium bis(trifluoromethylsulfonyl)imide",CCCCN1C=C[N+](=C1)CCCC.C(F)(F)(F)S(=O)(=O)[N-]S(=O)(=O)C(F)(F)F,C(CC)C[n+]1ccn(c1)CCCC.O=S(C(F)(F)F)(=O)[N-]S(C(F)(F)F)(=O)=O,14,1,275,14
323.15,0.1,0.117,Training,"1,3-dibutylimidazolium bis(trifluoromethylsulfonyl)imide",CCCCN1C=C[N+](=C1)CCCC.C(F)(F)(F)S(=O)(=O)[N-]S(=O)(=O)C(F)(F)F,FC(S([N-]S(C(F)(F)F)(=O)=O)(=O)=O)(F)F.n1(CCCC)c[n+](cc1)CCCC,14,1,275,14
323.15,0.1,0.117,Training,"1,3-dibutylimidazolium bis(trifluoromethylsulfonyl)imide",CCCCN1C=C[N+](=C1)CCCC.C(F)(F)(F)S(=O)(=O)[N-]S(=O)(=O)C(F)(F)F,FC(S([N-]S(=O)(=O)C(F)(F)F)(=O)=O)(F)F.n1(cc[n+](CCCC)c1)CCCC,14,1,275,14
323.15,0.1,0.117,Training,"1,3-dibutylimidazolium bis(trifluoromethylsulfonyl)imide",CCCCN1C=C[N+](=C1)CCCC.C(F)(F)(F)S(=O)(=O)[N-]S(=O)(=O)C(F)(F)F,C(C)CCn1c[n+](CCCC)cc1.FC(F)(F)S(=O)(=O)[N-]S(=O)(=O)C(F)(F)F,14,1,275,14
323.15,0.1,0.117,Training,"1,3-dibutylimidazolium bis(trifluoromethylsulfonyl)imide",CCCCN1C=C[N+](=C1)CCCC.C(F)(F)(F)S(=O)(=O)[N-]S(=O)(=O)C(F)(F)F,C([n+]1cn(CCCC)cc1)CCC.FC(F)(F)S(=O)([N-]S(=O)(=O)C(F)(F)F)=O,14,1,275,14
333.15,0.1,0.1176,Training,"1,3-dibutylimidazolium bis(trifluoromethylsulfonyl)imide",CCCCN1C=C[N+](=C1)CCCC.C(F)(F)(F)S(=O)(=O)[N-]S(=O)(=O)C(F)(F)F,CCCCn1cc[n+](CCCC)c1.O=S(=O)([N-]S(=O)(=O)C(F)(F)F)C(F)(F)F,14,1,276,14
333.15,0.1,0.1176,Training,"1,3-dibutylimidazolium bis(trifluoromethylsulfonyl)imide",CCCCN1C=C[N+](=C1)CCCC.C(F)(F)(F)S(=O)(=O)[N-]S(=O)(=O)C(F)(F)F,O=S(=O)([N-]S(C(F)(F)F)(=O)=O)C(F)(F)F.c1[n+](CCCC)cn(c1)CCCC,14,1,276,14
333.15,0.1,0.1176,Training,"1,3-dibutylimidazolium bis(trifluoromethylsulfonyl)imide",CCCCN1C=C[N+](=C1)CCCC.C(F)(F)(F)S(=O)(=O)[N-]S(=O)(=O)C(F)(F)F,C([n+]1cn(CCCC)cc1)CCC.FC(S([N-]S(C(F)(F)F)(=O)=O)(=O)=O)(F)F,14,1,276,14
333.15,0.1,0.1176,Training,"1,3-dibutylimidazolium bis(trifluoromethylsulfonyl)imide",CCCCN1C=C[N+](=C1)CCCC.C(F)(F)(F)S(=O)(=O)[N-]S(=O)(=O)C(F)(F)F,C(CC)C[n+]1ccn(c1)CCCC.FC(F)(S([N-]S(=O)(C(F)(F)F)=O)(=O)=O)F,14,1,276,14
333.15,0.1,0.1176,Training,"1,3-dibutylimidazolium bis(trifluoromethylsulfonyl)imide",CCCCN1C=C[N+](=C1)CCCC.C(F)(F)(F)S(=O)(=O)[N-]S(=O)(=O)C(F)(F)F,O=S(=O)(C(F)(F)F)[N-]S(C(F)(F)F)(=O)=O.c1[n+](CCCC)ccn1CCCC,14,1,276,14
333.15,0.1,0.1176,Training,"1,3-dibutylimidazolium bis(trifluoromethylsulfonyl)imide",CCCCN1C=C[N+](=C1)CCCC.C(F)(F)(F)S(=O)(=O)[N-]S(=O)(=O)C(F)(F)F,CCCCn1c[n+](CCCC)cc1.FC(F)(F)S([N-]S(=O)(=O)C(F)(F)F)(=O)=O,14,1,276,14
333.15,0.1,0.1176,Training,"1,3-dibutylimidazolium bis(trifluoromethylsulfonyl)imide",CCCCN1C=C[N+](=C1)CCCC.C(F)(F)(F)S(=O)(=O)[N-]S(=O)(=O)C(F)(F)F,FC(F)(S(=O)(=O)[N-]S(C(F)(F)F)(=O)=O)F.n1(CCCC)c[n+](CCCC)cc1,14,1,276,14
333.15,0.1,0.1176,Training,"1,3-dibutylimidazolium bis(trifluoromethylsulfonyl)imide",CCCCN1C=C[N+](=C1)CCCC.C(F)(F)(F)S(=O)(=O)[N-]S(=O)(=O)C(F)(F)F,C(F)(S([N-]S(=O)(C(F)(F)F)=O)(=O)=O)(F)F.CCCCn1c[n+](CCCC)cc1,14,1,276,14
333.15,0.1,0.1176,Training,"1,3-dibutylimidazolium bis(trifluoromethylsulfonyl)imide",CCCCN1C=C[N+](=C1)CCCC.C(F)(F)(F)S(=O)(=O)[N-]S(=O)(=O)C(F)(F)F,C(C)CCn1c[n+](CCCC)cc1.FC(F)(F)S(=O)(=O)[N-]S(=O)(C(F)(F)F)=O,14,1,276,14
333.15,0.1,0.1176,Training,"1,3-dibutylimidazolium bis(trifluoromethylsulfonyl)imide",CCCCN1C=C[N+](=C1)CCCC.C(F)(F)(F)S(=O)(=O)[N-]S(=O)(=O)C(F)(F)F,C(n1cc[n+](c1)CCCC)CCC.FC(F)(S([N-]S(=O)(C(F)(F)F)=O)(=O)=O)F,14,1,276,14
343.15,0.1,0.1171,Training,"1,3-dibutylimidazolium bis(trifluoromethylsulfonyl)imide",CCCCN1C=C[N+](=C1)CCCC.C(F)(F)(F)S(=O)(=O)[N-]S(=O)(=O)C(F)(F)F,CCCCn1cc[n+](CCCC)c1.O=S(=O)([N-]S(=O)(=O)C(F)(F)F)C(F)(F)F,14,1,277,14
343.15,0.1,0.1171,Training,"1,3-dibutylimidazolium bis(trifluoromethylsulfonyl)imide",CCCCN1C=C[N+](=C1)CCCC.C(F)(F)(F)S(=O)(=O)[N-]S(=O)(=O)C(F)(F)F,C(F)(S([N-]S(C(F)(F)F)(=O)=O)(=O)=O)(F)F.C([n+]1ccn(CCCC)c1)CCC,14,1,277,14
343.15,0.1,0.1171,Training,"1,3-dibutylimidazolium bis(trifluoromethylsulfonyl)imide",CCCCN1C=C[N+](=C1)CCCC.C(F)(F)(F)S(=O)(=O)[N-]S(=O)(=O)C(F)(F)F,C(C[n+]1ccn(c1)CCCC)CC.O=S([N-]S(=O)(=O)C(F)(F)F)(=O)C(F)(F)F,14,1,277,14
343.15,0.1,0.1171,Training,"1,3-dibutylimidazolium bis(trifluoromethylsulfonyl)imide",CCCCN1C=C[N+](=C1)CCCC.C(F)(F)(F)S(=O)(=O)[N-]S(=O)(=O)C(F)(F)F,C(CC[n+]1ccn(CCCC)c1)C.C(S([N-]S(=O)(=O)C(F)(F)F)(=O)=O)(F)(F)F,14,1,277,14
343.15,0.1,0.1171,Training,"1,3-dibutylimidazolium bis(trifluoromethylsulfonyl)imide",CCCCN1C=C[N+](=C1)CCCC.C(F)(F)(F)S(=O)(=O)[N-]S(=O)(=O)C(F)(F)F,C(CCC)[n+]1cn(cc1)CCCC.FC(F)(S(=O)(=O)[N-]S(=O)(C(F)(F)F)=O)F,14,1,277,14
343.15,0.1,0.1171,Training,"1,3-dibutylimidazolium bis(trifluoromethylsulfonyl)imide",CCCCN1C=C[N+](=C1)CCCC.C(F)(F)(F)S(=O)(=O)[N-]S(=O)(=O)C(F)(F)F,C(CCC)[n+]1ccn(CCCC)c1.FC(F)(F)S([N-]S(C(F)(F)F)(=O)=O)(=O)=O,14,1,277,14
343.15,0.1,0.1171,Training,"1,3-dibutylimidazolium bis(trifluoromethylsulfonyl)imide",CCCCN1C=C[N+](=C1)CCCC.C(F)(F)(F)S(=O)(=O)[N-]S(=O)(=O)C(F)(F)F,CCCC[n+]1ccn(CCCC)c1.[N-](S(=O)(C(F)(F)F)=O)S(=O)(=O)C(F)(F)F,14,1,277,14
343.15,0.1,0.1171,Training,"1,3-dibutylimidazolium bis(trifluoromethylsulfonyl)imide",CCCCN1C=C[N+](=C1)CCCC.C(F)(F)(F)S(=O)(=O)[N-]S(=O)(=O)C(F)(F)F,C(CCn1cc[n+](CCCC)c1)C.S(=O)(=O)([N-]S(C(F)(F)F)(=O)=O)C(F)(F)F,14,1,277,14
343.15,0.1,0.1171,Training,"1,3-dibutylimidazolium bis(trifluoromethylsulfonyl)imide",CCCCN1C=C[N+](=C1)CCCC.C(F)(F)(F)S(=O)(=O)[N-]S(=O)(=O)C(F)(F)F,C(CC[n+]1cn(CCCC)cc1)C.FC(F)(F)S(=O)([N-]S(=O)(C(F)(F)F)=O)=O,14,1,277,14
343.15,0.1,0.1171,Training,"1,3-dibutylimidazolium bis(trifluoromethylsulfonyl)imide",CCCCN1C=C[N+](=C1)CCCC.C(F)(F)(F)S(=O)(=O)[N-]S(=O)(=O)C(F)(F)F,C(C)CC[n+]1ccn(c1)CCCC.FC(F)(F)S(=O)([N-]S(=O)(C(F)(F)F)=O)=O,14,1,277,14
353.15,0.1,0.1164,Training,"1,3-dibutylimidazolium bis(trifluoromethylsulfonyl)imide",CCCCN1C=C[N+](=C1)CCCC.C(F)(F)(F)S(=O)(=O)[N-]S(=O)(=O)C(F)(F)F,CCCCn1cc[n+](CCCC)c1.O=S(=O)([N-]S(=O)(=O)C(F)(F)F)C(F)(F)F,14,1,278,14
353.15,0.1,0.1164,Training,"1,3-dibutylimidazolium bis(trifluoromethylsulfonyl)imide",CCCCN1C=C[N+](=C1)CCCC.C(F)(F)(F)S(=O)(=O)[N-]S(=O)(=O)C(F)(F)F,FC(F)(F)S([N-]S(=O)(C(F)(F)F)=O)(=O)=O.c1n(c[n+](c1)CCCC)CCCC,14,1,278,14
353.15,0.1,0.1164,Training,"1,3-dibutylimidazolium bis(trifluoromethylsulfonyl)imide",CCCCN1C=C[N+](=C1)CCCC.C(F)(F)(F)S(=O)(=O)[N-]S(=O)(=O)C(F)(F)F,FC(F)(S(=O)([N-]S(=O)(=O)C(F)(F)F)=O)F.c1[n+](CCCC)cn(CCCC)c1,14,1,278,14
353.15,0.1,0.1164,Training,"1,3-dibutylimidazolium bis(trifluoromethylsulfonyl)imide",CCCCN1C=C[N+](=C1)CCCC.C(F)(F)(F)S(=O)(=O)[N-]S(=O)(=O)C(F)(F)F,C(CCn1c[n+](cc1)CCCC)C.S(=O)(=O)(C(F)(F)F)[N-]S(=O)(=O)C(F)(F)F,14,1,278,14
353.15,0.1,0.1164,Training,"1,3-dibutylimidazolium bis(trifluoromethylsulfonyl)imide",CCCCN1C=C[N+](=C1)CCCC.C(F)(F)(F)S(=O)(=O)[N-]S(=O)(=O)C(F)(F)F,C(Cn1cc[n+](CCCC)c1)CC.O=S(=O)([N-]S(=O)(C(F)(F)F)=O)C(F)(F)F,14,1,278,14
353.15,0.1,0.1164,Training,"1,3-dibutylimidazolium bis(trifluoromethylsulfonyl)imide",CCCCN1C=C[N+](=C1)CCCC.C(F)(F)(F)S(=O)(=O)[N-]S(=O)(=O)C(F)(F)F,CCCC[n+]1ccn(CCCC)c1.FC(F)(S([N-]S(=O)(=O)C(F)(F)F)(=O)=O)F,14,1,278,14
353.15,0.1,0.1164,Training,"1,3-dibutylimidazolium bis(trifluoromethylsulfonyl)imide",CCCCN1C=C[N+](=C1)CCCC.C(F)(F)(F)S(=O)(=O)[N-]S(=O)(=O)C(F)(F)F,CCCC[n+]1cn(CCCC)cc1.FC(S([N-]S(C(F)(F)F)(=O)=O)(=O)=O)(F)F,14,1,278,14
353.15,0.1,0.1164,Training,"1,3-dibutylimidazolium bis(trifluoromethylsulfonyl)imide",CCCCN1C=C[N+](=C1)CCCC.C(F)(F)(F)S(=O)(=O)[N-]S(=O)(=O)C(F)(F)F,FC(F)(S(=O)([N-]S(=O)(=O)C(F)(F)F)=O)F.c1[n+](CCCC)ccn1CCCC,14,1,278,14
353.15,0.1,0.1164,Training,"1,3-dibutylimidazolium bis(trifluoromethylsulfonyl)imide",CCCCN1C=C[N+](=C1)CCCC.C(F)(F)(F)S(=O)(=O)[N-]S(=O)(=O)C(F)(F)F,CCCC[n+]1cn(CCCC)cc1.FC(F)(F)S(=O)(=O)[N-]S(=O)(=O)C(F)(F)F,14,1,278,14
353.15,0.1,0.1164,Training,"1,3-dibutylimidazolium bis(trifluoromethylsulfonyl)imide",CCCCN1C=C[N+](=C1)CCCC.C(F)(F)(F)S(=O)(=O)[N-]S(=O)(=O)C(F)(F)F,[N-](S(=O)(=O)C(F)(F)F)S(=O)(C(F)(F)F)=O.[n+]1(CCCC)ccn(CCCC)c1,14,1,278,14