T/K,P/MPa,TC/W m-1 K-1,Data type,Name,SMILES,Normalized SMILES,index,P/bar,RANDOM,IL
353.15,0.1,0.1248,Testing,methyltrioctylammonium bis(trifluoromethylsulfonyl)imide,CCCCCCCC[N+](C)(CCCCCCCC)CCCCCCCC.C(F)(F)(F)S(=O)(=O)[N-]S(=O)(=O)C(F)(F)F,CCCCCCCC[N+](C)(CCCCCCCC)CCCCCCCC.O=S(=O)([N-]S(=O)(=O)C(F)(F)F)C(F)(F)F,15,1,287,15
353.15,0.1,0.1248,Testing,methyltrioctylammonium bis(trifluoromethylsulfonyl)imide,CCCCCCCC[N+](C)(CCCCCCCC)CCCCCCCC.C(F)(F)(F)S(=O)(=O)[N-]S(=O)(=O)C(F)(F)F,C(CCCC[N+](CCCCCCCC)(CCCCCCCC)C)CCC.FC(F)(S(=O)([N-]S(=O)(=O)C(F)(F)F)=O)F,15,1,287,15
353.15,0.1,0.1248,Testing,methyltrioctylammonium bis(trifluoromethylsulfonyl)imide,CCCCCCCC[N+](C)(CCCCCCCC)CCCCCCCC.C(F)(F)(F)S(=O)(=O)[N-]S(=O)(=O)C(F)(F)F,C(CCCCC)CC[N+](C)(CCCCCCCC)CCCCCCCC.FC(S(=O)([N-]S(=O)(=O)C(F)(F)F)=O)(F)F,15,1,287,15
353.15,0.1,0.1248,Testing,methyltrioctylammonium bis(trifluoromethylsulfonyl)imide,CCCCCCCC[N+](C)(CCCCCCCC)CCCCCCCC.C(F)(F)(F)S(=O)(=O)[N-]S(=O)(=O)C(F)(F)F,C(CC[N+](CCCCCCCC)(C)CCCCCCCC)CCCCC.FC(F)(F)S(=O)([N-]S(=O)(C(F)(F)F)=O)=O,15,1,287,15
353.15,0.1,0.1248,Testing,methyltrioctylammonium bis(trifluoromethylsulfonyl)imide,CCCCCCCC[N+](C)(CCCCCCCC)CCCCCCCC.C(F)(F)(F)S(=O)(=O)[N-]S(=O)(=O)C(F)(F)F,C(C)CCCCCC[N+](CCCCCCCC)(C)CCCCCCCC.O=S(=O)([N-]S(=O)(C(F)(F)F)=O)C(F)(F)F,15,1,287,15
353.15,0.1,0.1248,Testing,methyltrioctylammonium bis(trifluoromethylsulfonyl)imide,CCCCCCCC[N+](C)(CCCCCCCC)CCCCCCCC.C(F)(F)(F)S(=O)(=O)[N-]S(=O)(=O)C(F)(F)F,C(CCCCC)CC[N+](C)(CCCCCCCC)CCCCCCCC.FC(S([N-]S(=O)(C(F)(F)F)=O)(=O)=O)(F)F,15,1,287,15
353.15,0.1,0.1248,Testing,methyltrioctylammonium bis(trifluoromethylsulfonyl)imide,CCCCCCCC[N+](C)(CCCCCCCC)CCCCCCCC.C(F)(F)(F)S(=O)(=O)[N-]S(=O)(=O)C(F)(F)F,C(CCC)CCCC[N+](C)(CCCCCCCC)CCCCCCCC.O=S(C(F)(F)F)(=O)[N-]S(C(F)(F)F)(=O)=O,15,1,287,15
353.15,0.1,0.1248,Testing,methyltrioctylammonium bis(trifluoromethylsulfonyl)imide,CCCCCCCC[N+](C)(CCCCCCCC)CCCCCCCC.C(F)(F)(F)S(=O)(=O)[N-]S(=O)(=O)C(F)(F)F,C(CCCCCCC)[N+](C)(CCCCCCCC)CCCCCCCC.[N-](S(C(F)(F)F)(=O)=O)S(C(F)(F)F)(=O)=O,15,1,287,15
353.15,0.1,0.1248,Testing,methyltrioctylammonium bis(trifluoromethylsulfonyl)imide,CCCCCCCC[N+](C)(CCCCCCCC)CCCCCCCC.C(F)(F)(F)S(=O)(=O)[N-]S(=O)(=O)C(F)(F)F,C(CCC[N+](CCCCCCCC)(CCCCCCCC)C)CCCC.S([N-]S(=O)(=O)C(F)(F)F)(=O)(C(F)(F)F)=O,15,1,287,15
353.15,0.1,0.1248,Testing,methyltrioctylammonium bis(trifluoromethylsulfonyl)imide,CCCCCCCC[N+](C)(CCCCCCCC)CCCCCCCC.C(F)(F)(F)S(=O)(=O)[N-]S(=O)(=O)C(F)(F)F,C(C[N+](CCCCCCCC)(C)CCCCCCCC)CCCCCC.C(F)(S([N-]S(=O)(C(F)(F)F)=O)(=O)=O)(F)F,15,1,287,15
282.47,0.1,0.137,Training,trihexyltetradecylphosphonium phosphinate,CCCCCCCCCCCCCC[P+](CCCCCC)(CCCCCC)CCCCCC.[O-]P=O,CCCCCCCCCCCCCC[P+](CCCCCC)(CCCCCC)CCCCCC.O=P[O-],16,1,288,16
282.47,0.1,0.137,Training,trihexyltetradecylphosphonium phosphinate,CCCCCCCCCCCCCC[P+](CCCCCC)(CCCCCC)CCCCCC.[O-]P=O,[O-]P=O.[P+](CCCCCC)(CCCCCCCCCCCCCC)(CCCCCC)CCCCCC,16,1,288,16
282.47,0.1,0.137,Training,trihexyltetradecylphosphonium phosphinate,CCCCCCCCCCCCCC[P+](CCCCCC)(CCCCCC)CCCCCC.[O-]P=O,C(CCCCCCCCCCCC)C[P+](CCCCCC)(CCCCCC)CCCCCC.O=P[O-],16,1,288,16
282.47,0.1,0.137,Training,trihexyltetradecylphosphonium phosphinate,CCCCCCCCCCCCCC[P+](CCCCCC)(CCCCCC)CCCCCC.[O-]P=O,CCCCCC[P+](CCCCCC)(CCCCCCCCCCCCCC)CCCCCC.O=P[O-],16,1,288,16
282.47,0.1,0.137,Training,trihexyltetradecylphosphonium phosphinate,CCCCCCCCCCCCCC[P+](CCCCCC)(CCCCCC)CCCCCC.[O-]P=O,CCCCCC[P+](CCCCCC)(CCCCCCCCCCCCCC)CCCCCC.[O-]P=O,16,1,288,16
282.47,0.1,0.137,Training,trihexyltetradecylphosphonium phosphinate,CCCCCCCCCCCCCC[P+](CCCCCC)(CCCCCC)CCCCCC.[O-]P=O,C([P+](CCCCCC)(CCCCCC)CCCCCC)CCCCCCCCCCCCC.O=P[O-],16,1,288,16
282.47,0.1,0.137,Training,trihexyltetradecylphosphonium phosphinate,CCCCCCCCCCCCCC[P+](CCCCCC)(CCCCCC)CCCCCC.[O-]P=O,C(CCC)CC[P+](CCCCCCCCCCCCCC)(CCCCCC)CCCCCC.[O-]P=O,16,1,288,16
282.47,0.1,0.137,Training,trihexyltetradecylphosphonium phosphinate,CCCCCCCCCCCCCC[P+](CCCCCC)(CCCCCC)CCCCCC.[O-]P=O,C(CCCCCC)CCCCCCC[P+](CCCCCC)(CCCCCC)CCCCCC.[O-]P=O,16,1,288,16
282.47,0.1,0.137,Training,trihexyltetradecylphosphonium phosphinate,CCCCCCCCCCCCCC[P+](CCCCCC)(CCCCCC)CCCCCC.[O-]P=O,C(CC[P+](CCCCCC)(CCCCCC)CCCCCCCCCCCCCC)CCC.P(=O)[O-],16,1,288,16
292.94,0.1,0.136,Training,trihexyltetradecylphosphonium phosphinate,CCCCCCCCCCCCCC[P+](CCCCCC)(CCCCCC)CCCCCC.[O-]P=O,CCCCCCCCCCCCCC[P+](CCCCCC)(CCCCCC)CCCCCC.O=P[O-],16,1,289,16
292.94,0.1,0.136,Training,trihexyltetradecylphosphonium phosphinate,CCCCCCCCCCCCCC[P+](CCCCCC)(CCCCCC)CCCCCC.[O-]P=O,C(CCCC)C[P+](CCCCCCCCCCCCCC)(CCCCCC)CCCCCC.O=P[O-],16,1,289,16
292.94,0.1,0.136,Training,trihexyltetradecylphosphonium phosphinate,CCCCCCCCCCCCCC[P+](CCCCCC)(CCCCCC)CCCCCC.[O-]P=O,C(CCCCCCCCCCC)CC[P+](CCCCCC)(CCCCCC)CCCCCC.[O-]P=O,16,1,289,16
292.94,0.1,0.136,Training,trihexyltetradecylphosphonium phosphinate,CCCCCCCCCCCCCC[P+](CCCCCC)(CCCCCC)CCCCCC.[O-]P=O,C(CCCC[P+](CCCCCC)(CCCCCCCCCCCCCC)CCCCCC)C.[O-]P=O,16,1,289,16
292.94,0.1,0.136,Training,trihexyltetradecylphosphonium phosphinate,CCCCCCCCCCCCCC[P+](CCCCCC)(CCCCCC)CCCCCC.[O-]P=O,C(C[P+](CCCCCC)(CCCCCC)CCCCCC)CCCCCCCCCCCC.[O-]P=O,16,1,289,16
292.94,0.1,0.136,Training,trihexyltetradecylphosphonium phosphinate,CCCCCCCCCCCCCC[P+](CCCCCC)(CCCCCC)CCCCCC.[O-]P=O,C(CCCCCC[P+](CCCCCC)(CCCCCC)CCCCCC)CCCCCCC.P([O-])=O,16,1,289,16
292.94,0.1,0.136,Training,trihexyltetradecylphosphonium phosphinate,CCCCCCCCCCCCCC[P+](CCCCCC)(CCCCCC)CCCCCC.[O-]P=O,C([P+](CCCCCC)(CCCCCC)CCCCCCCCCCCCCC)CCCCC.P(=O)[O-],16,1,289,16
292.94,0.1,0.136,Training,trihexyltetradecylphosphonium phosphinate,CCCCCCCCCCCCCC[P+](CCCCCC)(CCCCCC)CCCCCC.[O-]P=O,C(CCC[P+](CCCCCC)(CCCCCC)CCCCCC)CCCCCCCCCC.O=P[O-],16,1,289,16
292.94,0.1,0.136,Training,trihexyltetradecylphosphonium phosphinate,CCCCCCCCCCCCCC[P+](CCCCCC)(CCCCCC)CCCCCC.[O-]P=O,C(CCCCCCCCCCCC)C[P+](CCCCCC)(CCCCCC)CCCCCC.P([O-])=O,16,1,289,16
292.94,0.1,0.136,Training,trihexyltetradecylphosphonium phosphinate,CCCCCCCCCCCCCC[P+](CCCCCC)(CCCCCC)CCCCCC.[O-]P=O,C(CC[P+](CCCCCC)(CCCCCCCCCCCCCC)CCCCCC)CCC.[O-]P=O,16,1,289,16
298.04,0.1,0.135,Training,trihexyltetradecylphosphonium phosphinate,CCCCCCCCCCCCCC[P+](CCCCCC)(CCCCCC)CCCCCC.[O-]P=O,CCCCCCCCCCCCCC[P+](CCCCCC)(CCCCCC)CCCCCC.O=P[O-],16,1,290,16
298.04,0.1,0.135,Training,trihexyltetradecylphosphonium phosphinate,CCCCCCCCCCCCCC[P+](CCCCCC)(CCCCCC)CCCCCC.[O-]P=O,C([P+](CCCCCC)(CCCCCC)CCCCCC)CCCCCCCCCCCCC.O=P[O-],16,1,290,16
298.04,0.1,0.135,Training,trihexyltetradecylphosphonium phosphinate,CCCCCCCCCCCCCC[P+](CCCCCC)(CCCCCC)CCCCCC.[O-]P=O,C(CCC[P+](CCCCCC)(CCCCCC)CCCCCC)CCCCCCCCCC.O=P[O-],16,1,290,16
298.04,0.1,0.135,Training,trihexyltetradecylphosphonium phosphinate,CCCCCCCCCCCCCC[P+](CCCCCC)(CCCCCC)CCCCCC.[O-]P=O,CCCCCC[P+](CCCCCCCCCCCCCC)(CCCCCC)CCCCCC.O=P[O-],16,1,290,16
298.04,0.1,0.135,Training,trihexyltetradecylphosphonium phosphinate,CCCCCCCCCCCCCC[P+](CCCCCC)(CCCCCC)CCCCCC.[O-]P=O,C(CCCCCC)CCCCCCC[P+](CCCCCC)(CCCCCC)CCCCCC.P(=O)[O-],16,1,290,16
298.04,0.1,0.135,Training,trihexyltetradecylphosphonium phosphinate,CCCCCCCCCCCCCC[P+](CCCCCC)(CCCCCC)CCCCCC.[O-]P=O,C(CCCC)C[P+](CCCCCCCCCCCCCC)(CCCCCC)CCCCCC.[O-]P=O,16,1,290,16
298.04,0.1,0.135,Training,trihexyltetradecylphosphonium phosphinate,CCCCCCCCCCCCCC[P+](CCCCCC)(CCCCCC)CCCCCC.[O-]P=O,C(CC[P+](CCCCCCCCCCCCCC)(CCCCCC)CCCCCC)CCC.P([O-])=O,16,1,290,16
298.04,0.1,0.135,Training,trihexyltetradecylphosphonium phosphinate,CCCCCCCCCCCCCC[P+](CCCCCC)(CCCCCC)CCCCCC.[O-]P=O,C(CCCC[P+](CCCCCC)(CCCCCCCCCCCCCC)CCCCCC)C.P(=O)[O-],16,1,290,16
298.04,0.1,0.135,Training,trihexyltetradecylphosphonium phosphinate,CCCCCCCCCCCCCC[P+](CCCCCC)(CCCCCC)CCCCCC.[O-]P=O,CCCCCC[P+](CCCCCC)(CCCCCCCCCCCCCC)CCCCCC.[O-]P=O,16,1,290,16
298.04,0.1,0.135,Training,trihexyltetradecylphosphonium phosphinate,CCCCCCCCCCCCCC[P+](CCCCCC)(CCCCCC)CCCCCC.[O-]P=O,C(CCCCCCCCC[P+](CCCCCC)(CCCCCC)CCCCCC)CCCC.O=P[O-],16,1,290,16
303.15,0.1,0.135,Training,trihexyltetradecylphosphonium phosphinate,CCCCCCCCCCCCCC[P+](CCCCCC)(CCCCCC)CCCCCC.[O-]P=O,CCCCCCCCCCCCCC[P+](CCCCCC)(CCCCCC)CCCCCC.O=P[O-],16,1,291,16
303.15,0.1,0.135,Training,trihexyltetradecylphosphonium phosphinate,CCCCCCCCCCCCCC[P+](CCCCCC)(CCCCCC)CCCCCC.[O-]P=O,C(CCC[P+](CCCCCC)(CCCCCCCCCCCCCC)CCCCCC)CC.P(=O)[O-],16,1,291,16
303.15,0.1,0.135,Training,trihexyltetradecylphosphonium phosphinate,CCCCCCCCCCCCCC[P+](CCCCCC)(CCCCCC)CCCCCC.[O-]P=O,C(CCCCCCC[P+](CCCCCC)(CCCCCC)CCCCCC)CCCCCC.P([O-])=O,16,1,291,16
303.15,0.1,0.135,Training,trihexyltetradecylphosphonium phosphinate,CCCCCCCCCCCCCC[P+](CCCCCC)(CCCCCC)CCCCCC.[O-]P=O,C(CCC)CC[P+](CCCCCC)(CCCCCCCCCCCCCC)CCCCCC.[O-]P=O,16,1,291,16
303.15,0.1,0.135,Training,trihexyltetradecylphosphonium phosphinate,CCCCCCCCCCCCCC[P+](CCCCCC)(CCCCCC)CCCCCC.[O-]P=O,C(CCCCCCC[P+](CCCCCC)(CCCCCC)CCCCCC)CCCCCC.O=P[O-],16,1,291,16
303.15,0.1,0.135,Training,trihexyltetradecylphosphonium phosphinate,CCCCCCCCCCCCCC[P+](CCCCCC)(CCCCCC)CCCCCC.[O-]P=O,C(CCCCCCCCCCCC[P+](CCCCCC)(CCCCCC)CCCCCC)C.P([O-])=O,16,1,291,16
303.15,0.1,0.135,Training,trihexyltetradecylphosphonium phosphinate,CCCCCCCCCCCCCC[P+](CCCCCC)(CCCCCC)CCCCCC.[O-]P=O,C(CCCCC[P+](CCCCCC)(CCCCCC)CCCCCC)CCCCCCCC.O=P[O-],16,1,291,16
303.15,0.1,0.135,Training,trihexyltetradecylphosphonium phosphinate,CCCCCCCCCCCCCC[P+](CCCCCC)(CCCCCC)CCCCCC.[O-]P=O,C(CCCC[P+](CCCCCCCCCCCCCC)(CCCCCC)CCCCCC)C.O=P[O-],16,1,291,16
303.15,0.1,0.135,Training,trihexyltetradecylphosphonium phosphinate,CCCCCCCCCCCCCC[P+](CCCCCC)(CCCCCC)CCCCCC.[O-]P=O,C(C)CCCCCCCCCCCC[P+](CCCCCC)(CCCCCC)CCCCCC.P(=O)[O-],16,1,291,16
313.45,0.1,0.133,Training,trihexyltetradecylphosphonium phosphinate,CCCCCCCCCCCCCC[P+](CCCCCC)(CCCCCC)CCCCCC.[O-]P=O,CCCCCCCCCCCCCC[P+](CCCCCC)(CCCCCC)CCCCCC.O=P[O-],16,1,292,16
313.45,0.1,0.133,Training,trihexyltetradecylphosphonium phosphinate,CCCCCCCCCCCCCC[P+](CCCCCC)(CCCCCC)CCCCCC.[O-]P=O,C(CC)CCCCCCCCCCC[P+](CCCCCC)(CCCCCC)CCCCCC.O=P[O-],16,1,292,16
313.45,0.1,0.133,Training,trihexyltetradecylphosphonium phosphinate,CCCCCCCCCCCCCC[P+](CCCCCC)(CCCCCC)CCCCCC.[O-]P=O,C(CCCCC[P+](CCCCCC)(CCCCCC)CCCCCC)CCCCCCCC.P([O-])=O,16,1,292,16
313.45,0.1,0.133,Training,trihexyltetradecylphosphonium phosphinate,CCCCCCCCCCCCCC[P+](CCCCCC)(CCCCCC)CCCCCC.[O-]P=O,C(CCC)CCCCCCCCCC[P+](CCCCCC)(CCCCCC)CCCCCC.O=P[O-],16,1,292,16
313.45,0.1,0.133,Training,trihexyltetradecylphosphonium phosphinate,CCCCCCCCCCCCCC[P+](CCCCCC)(CCCCCC)CCCCCC.[O-]P=O,C(CCCC[P+](CCCCCC)(CCCCCC)CCCCCC)CCCCCCCCC.[O-]P=O,16,1,292,16
313.45,0.1,0.133,Training,trihexyltetradecylphosphonium phosphinate,CCCCCCCCCCCCCC[P+](CCCCCC)(CCCCCC)CCCCCC.[O-]P=O,C([P+](CCCCCC)(CCCCCC)CCCCCCCCCCCCCC)CCCCC.P([O-])=O,16,1,292,16
313.45,0.1,0.133,Training,trihexyltetradecylphosphonium phosphinate,CCCCCCCCCCCCCC[P+](CCCCCC)(CCCCCC)CCCCCC.[O-]P=O,CCCCCC[P+](CCCCCC)(CCCCCCCCCCCCCC)CCCCCC.O=P[O-],16,1,292,16
313.45,0.1,0.133,Training,trihexyltetradecylphosphonium phosphinate,CCCCCCCCCCCCCC[P+](CCCCCC)(CCCCCC)CCCCCC.[O-]P=O,C([P+](CCCCCCCCCCCCCC)(CCCCCC)CCCCCC)CCCCC.[O-]P=O,16,1,292,16
313.45,0.1,0.133,Training,trihexyltetradecylphosphonium phosphinate,CCCCCCCCCCCCCC[P+](CCCCCC)(CCCCCC)CCCCCC.[O-]P=O,C(C[P+](CCCCCC)(CCCCCC)CCCCCCCCCCCCCC)CCCC.P([O-])=O,16,1,292,16
313.45,0.1,0.133,Training,trihexyltetradecylphosphonium phosphinate,CCCCCCCCCCCCCC[P+](CCCCCC)(CCCCCC)CCCCCC.[O-]P=O,C(CCCCCCCCCC[P+](CCCCCC)(CCCCCC)CCCCCC)CCC.O=P[O-],16,1,292,16
323.45,0.1,0.132,Training,trihexyltetradecylphosphonium phosphinate,CCCCCCCCCCCCCC[P+](CCCCCC)(CCCCCC)CCCCCC.[O-]P=O,CCCCCCCCCCCCCC[P+](CCCCCC)(CCCCCC)CCCCCC.O=P[O-],16,1,293,16
323.45,0.1,0.132,Training,trihexyltetradecylphosphonium phosphinate,CCCCCCCCCCCCCC[P+](CCCCCC)(CCCCCC)CCCCCC.[O-]P=O,CCCCCCCCCCCCCC[P+](CCCCCC)(CCCCCC)CCCCCC.[O-]P=O,16,1,293,16
323.45,0.1,0.132,Training,trihexyltetradecylphosphonium phosphinate,CCCCCCCCCCCCCC[P+](CCCCCC)(CCCCCC)CCCCCC.[O-]P=O,C([P+](CCCCCC)(CCCCCC)CCCCCC)CCCCCCCCCCCCC.O=P[O-],16,1,293,16
323.45,0.1,0.132,Training,trihexyltetradecylphosphonium phosphinate,CCCCCCCCCCCCCC[P+](CCCCCC)(CCCCCC)CCCCCC.[O-]P=O,C(CC)CCC[P+](CCCCCCCCCCCCCC)(CCCCCC)CCCCCC.O=P[O-],16,1,293,16
323.45,0.1,0.132,Training,trihexyltetradecylphosphonium phosphinate,CCCCCCCCCCCCCC[P+](CCCCCC)(CCCCCC)CCCCCC.[O-]P=O,C([P+](CCCCCC)(CCCCCC)CCCCCCCCCCCCCC)CCCCC.P(=O)[O-],16,1,293,16
323.45,0.1,0.132,Training,trihexyltetradecylphosphonium phosphinate,CCCCCCCCCCCCCC[P+](CCCCCC)(CCCCCC)CCCCCC.[O-]P=O,C(CCCCCCCCCC[P+](CCCCCC)(CCCCCC)CCCCCC)CCC.P([O-])=O,16,1,293,16
323.45,0.1,0.132,Training,trihexyltetradecylphosphonium phosphinate,CCCCCCCCCCCCCC[P+](CCCCCC)(CCCCCC)CCCCCC.[O-]P=O,CCCCCC[P+](CCCCCC)(CCCCCCCCCCCCCC)CCCCCC.P(=O)[O-],16,1,293,16
323.45,0.1,0.132,Training,trihexyltetradecylphosphonium phosphinate,CCCCCCCCCCCCCC[P+](CCCCCC)(CCCCCC)CCCCCC.[O-]P=O,CCCCCC[P+](CCCCCCCCCCCCCC)(CCCCCC)CCCCCC.[O-]P=O,16,1,293,16
323.45,0.1,0.132,Training,trihexyltetradecylphosphonium phosphinate,CCCCCCCCCCCCCC[P+](CCCCCC)(CCCCCC)CCCCCC.[O-]P=O,C(CCCC[P+](CCCCCC)(CCCCCC)CCCCCC)CCCCCCCCC.P([O-])=O,16,1,293,16
333.55,0.1,0.131,Training,trihexyltetradecylphosphonium phosphinate,CCCCCCCCCCCCCC[P+](CCCCCC)(CCCCCC)CCCCCC.[O-]P=O,CCCCCCCCCCCCCC[P+](CCCCCC)(CCCCCC)CCCCCC.O=P[O-],16,1,294,16
333.55,0.1,0.131,Training,trihexyltetradecylphosphonium phosphinate,CCCCCCCCCCCCCC[P+](CCCCCC)(CCCCCC)CCCCCC.[O-]P=O,C(CCCCC)[P+](CCCCCC)(CCCCCCCCCCCCCC)CCCCCC.P(=O)[O-],16,1,294,16
333.55,0.1,0.131,Training,trihexyltetradecylphosphonium phosphinate,CCCCCCCCCCCCCC[P+](CCCCCC)(CCCCCC)CCCCCC.[O-]P=O,C(CCCCCCC)CCCCCC[P+](CCCCCC)(CCCCCC)CCCCCC.[O-]P=O,16,1,294,16
333.55,0.1,0.131,Training,trihexyltetradecylphosphonium phosphinate,CCCCCCCCCCCCCC[P+](CCCCCC)(CCCCCC)CCCCCC.[O-]P=O,CCCCCC[P+](CCCCCC)(CCCCCC)CCCCCCCCCCCCCC.P(=O)[O-],16,1,294,16
333.55,0.1,0.131,Training,trihexyltetradecylphosphonium phosphinate,CCCCCCCCCCCCCC[P+](CCCCCC)(CCCCCC)CCCCCC.[O-]P=O,CCCCCC[P+](CCCCCC)(CCCCCCCCCCCCCC)CCCCCC.P(=O)[O-],16,1,294,16
333.55,0.1,0.131,Training,trihexyltetradecylphosphonium phosphinate,CCCCCCCCCCCCCC[P+](CCCCCC)(CCCCCC)CCCCCC.[O-]P=O,C(CCCCC)CCCCCCCC[P+](CCCCCC)(CCCCCC)CCCCCC.[O-]P=O,16,1,294,16
333.55,0.1,0.131,Training,trihexyltetradecylphosphonium phosphinate,CCCCCCCCCCCCCC[P+](CCCCCC)(CCCCCC)CCCCCC.[O-]P=O,C(CCCC[P+](CCCCCC)(CCCCCC)CCCCCCCCCCCCCC)C.[O-]P=O,16,1,294,16
333.55,0.1,0.131,Training,trihexyltetradecylphosphonium phosphinate,CCCCCCCCCCCCCC[P+](CCCCCC)(CCCCCC)CCCCCC.[O-]P=O,C(CCC[P+](CCCCCC)(CCCCCC)CCCCCC)CCCCCCCCCC.O=P[O-],16,1,294,16
333.55,0.1,0.131,Training,trihexyltetradecylphosphonium phosphinate,CCCCCCCCCCCCCC[P+](CCCCCC)(CCCCCC)CCCCCC.[O-]P=O,C(CCCC[P+](CCCCCC)(CCCCCC)CCCCCC)CCCCCCCCC.O=P[O-],16,1,294,16
333.55,0.1,0.131,Training,trihexyltetradecylphosphonium phosphinate,CCCCCCCCCCCCCC[P+](CCCCCC)(CCCCCC)CCCCCC.[O-]P=O,C(CCCCCCCC[P+](CCCCCC)(CCCCCC)CCCCCC)CCCCC.[O-]P=O,16,1,294,16
343.59,0.1,0.131,Training,trihexyltetradecylphosphonium phosphinate,CCCCCCCCCCCCCC[P+](CCCCCC)(CCCCCC)CCCCCC.[O-]P=O,CCCCCCCCCCCCCC[P+](CCCCCC)(CCCCCC)CCCCCC.O=P[O-],16,1,295,16
343.59,0.1,0.131,Training,trihexyltetradecylphosphonium phosphinate,CCCCCCCCCCCCCC[P+](CCCCCC)(CCCCCC)CCCCCC.[O-]P=O,CCCCCCCCCCCCCC[P+](CCCCCC)(CCCCCC)CCCCCC.P([O-])=O,16,1,295,16
343.59,0.1,0.131,Training,trihexyltetradecylphosphonium phosphinate,CCCCCCCCCCCCCC[P+](CCCCCC)(CCCCCC)CCCCCC.[O-]P=O,C(CC)CCC[P+](CCCCCCCCCCCCCC)(CCCCCC)CCCCCC.O=P[O-],16,1,295,16
343.59,0.1,0.131,Training,trihexyltetradecylphosphonium phosphinate,CCCCCCCCCCCCCC[P+](CCCCCC)(CCCCCC)CCCCCC.[O-]P=O,C(C)CCCC[P+](CCCCCC)(CCCCCCCCCCCCCC)CCCCCC.[O-]P=O,16,1,295,16
343.59,0.1,0.131,Training,trihexyltetradecylphosphonium phosphinate,CCCCCCCCCCCCCC[P+](CCCCCC)(CCCCCC)CCCCCC.[O-]P=O,C(CCCCCCCCCCC[P+](CCCCCC)(CCCCCC)CCCCCC)CC.P([O-])=O,16,1,295,16
343.59,0.1,0.131,Training,trihexyltetradecylphosphonium phosphinate,CCCCCCCCCCCCCC[P+](CCCCCC)(CCCCCC)CCCCCC.[O-]P=O,C(CCCCCCCCC)CCCC[P+](CCCCCC)(CCCCCC)CCCCCC.[O-]P=O,16,1,295,16
343.59,0.1,0.131,Training,trihexyltetradecylphosphonium phosphinate,CCCCCCCCCCCCCC[P+](CCCCCC)(CCCCCC)CCCCCC.[O-]P=O,C(CCCCCCCC)CCCCC[P+](CCCCCC)(CCCCCC)CCCCCC.O=P[O-],16,1,295,16
343.59,0.1,0.131,Training,trihexyltetradecylphosphonium phosphinate,CCCCCCCCCCCCCC[P+](CCCCCC)(CCCCCC)CCCCCC.[O-]P=O,CCCCCCCCCCCCCC[P+](CCCCCC)(CCCCCC)CCCCCC.[O-]P=O,16,1,295,16
343.59,0.1,0.131,Training,trihexyltetradecylphosphonium phosphinate,CCCCCCCCCCCCCC[P+](CCCCCC)(CCCCCC)CCCCCC.[O-]P=O,C(CCCCCC)CCCCCCC[P+](CCCCCC)(CCCCCC)CCCCCC.O=P[O-],16,1,295,16
353.62,0.1,0.131,Training,trihexyltetradecylphosphonium phosphinate,CCCCCCCCCCCCCC[P+](CCCCCC)(CCCCCC)CCCCCC.[O-]P=O,CCCCCCCCCCCCCC[P+](CCCCCC)(CCCCCC)CCCCCC.O=P[O-],16,1,296,16
353.62,0.1,0.131,Training,trihexyltetradecylphosphonium phosphinate,CCCCCCCCCCCCCC[P+](CCCCCC)(CCCCCC)CCCCCC.[O-]P=O,C(CCCCCC)CCCCCCC[P+](CCCCCC)(CCCCCC)CCCCCC.P(=O)[O-],16,1,296,16
353.62,0.1,0.131,Training,trihexyltetradecylphosphonium phosphinate,CCCCCCCCCCCCCC[P+](CCCCCC)(CCCCCC)CCCCCC.[O-]P=O,C(CCC)CC[P+](CCCCCCCCCCCCCC)(CCCCCC)CCCCCC.P([O-])=O,16,1,296,16
353.62,0.1,0.131,Training,trihexyltetradecylphosphonium phosphinate,CCCCCCCCCCCCCC[P+](CCCCCC)(CCCCCC)CCCCCC.[O-]P=O,C(CCCC[P+](CCCCCC)(CCCCCC)CCCCCC)CCCCCCCCC.[O-]P=O,16,1,296,16
353.62,0.1,0.131,Training,trihexyltetradecylphosphonium phosphinate,CCCCCCCCCCCCCC[P+](CCCCCC)(CCCCCC)CCCCCC.[O-]P=O,C(CCCCC[P+](CCCCCC)(CCCCCC)CCCCCC)CCCCCCCC.P(=O)[O-],16,1,296,16
353.62,0.1,0.131,Training,trihexyltetradecylphosphonium phosphinate,CCCCCCCCCCCCCC[P+](CCCCCC)(CCCCCC)CCCCCC.[O-]P=O,C(CCC[P+](CCCCCC)(CCCCCC)CCCCCC)CCCCCCCCCC.[O-]P=O,16,1,296,16
353.62,0.1,0.131,Training,trihexyltetradecylphosphonium phosphinate,CCCCCCCCCCCCCC[P+](CCCCCC)(CCCCCC)CCCCCC.[O-]P=O,C(CCCCCC)CCCCCCC[P+](CCCCCC)(CCCCCC)CCCCCC.O=P[O-],16,1,296,16
353.62,0.1,0.131,Training,trihexyltetradecylphosphonium phosphinate,CCCCCCCCCCCCCC[P+](CCCCCC)(CCCCCC)CCCCCC.[O-]P=O,CCCCCC[P+](CCCCCC)(CCCCCCCCCCCCCC)CCCCCC.P(=O)[O-],16,1,296,16
353.62,0.1,0.131,Training,trihexyltetradecylphosphonium phosphinate,CCCCCCCCCCCCCC[P+](CCCCCC)(CCCCCC)CCCCCC.[O-]P=O,CCCCCC[P+](CCCCCCCCCCCCCC)(CCCCCC)CCCCCC.O=P[O-],16,1,296,16
285.65,0.1,0.139,Training,trihexyltetradecylphosphonium bis(trifluoromethylsulfonyl)imide,CCCCCCCCCCCCCC[P+](CCCCCC)(CCCCCC)CCCCCC.C(F)(F)(F)S(=O)(=O)[N-]S(=O)(=O)C(F)(F)F,CCCCCCCCCCCCCC[P+](CCCCCC)(CCCCCC)CCCCCC.O=S(=O)([N-]S(=O)(=O)C(F)(F)F)C(F)(F)F,17,1,297,17
285.65,0.1,0.139,Training,trihexyltetradecylphosphonium bis(trifluoromethylsulfonyl)imide,CCCCCCCCCCCCCC[P+](CCCCCC)(CCCCCC)CCCCCC.C(F)(F)(F)S(=O)(=O)[N-]S(=O)(=O)C(F)(F)F,C(CCCCCCCCCCC)CC[P+](CCCCCC)(CCCCCC)CCCCCC.FC(S(=O)(=O)[N-]S(C(F)(F)F)(=O)=O)(F)F,17,1,297,17
285.65,0.1,0.139,Training,trihexyltetradecylphosphonium bis(trifluoromethylsulfonyl)imide,CCCCCCCCCCCCCC[P+](CCCCCC)(CCCCCC)CCCCCC.C(F)(F)(F)S(=O)(=O)[N-]S(=O)(=O)C(F)(F)F,C([P+](CCCCCC)(CCCCCC)CCCCCCCCCCCCCC)CCCCC.O=S(=O)(C(F)(F)F)[N-]S(=O)(C(F)(F)F)=O,17,1,297,17
285.65,0.1,0.139,Training,trihexyltetradecylphosphonium bis(trifluoromethylsulfonyl)imide,CCCCCCCCCCCCCC[P+](CCCCCC)(CCCCCC)CCCCCC.C(F)(F)(F)S(=O)(=O)[N-]S(=O)(=O)C(F)(F)F,C(C)CCCC[P+](CCCCCCCCCCCCCC)(CCCCCC)CCCCCC.FC(S(=O)(=O)[N-]S(=O)(=O)C(F)(F)F)(F)F,17,1,297,17
285.65,0.1,0.139,Training,trihexyltetradecylphosphonium bis(trifluoromethylsulfonyl)imide,CCCCCCCCCCCCCC[P+](CCCCCC)(CCCCCC)CCCCCC.C(F)(F)(F)S(=O)(=O)[N-]S(=O)(=O)C(F)(F)F,C(C)CCCC[P+](CCCCCCCCCCCCCC)(CCCCCC)CCCCCC.FC(F)(F)S(=O)([N-]S(C(F)(F)F)(=O)=O)=O,17,1,297,17
285.65,0.1,0.139,Training,trihexyltetradecylphosphonium bis(trifluoromethylsulfonyl)imide,CCCCCCCCCCCCCC[P+](CCCCCC)(CCCCCC)CCCCCC.C(F)(F)(F)S(=O)(=O)[N-]S(=O)(=O)C(F)(F)F,C([P+](CCCCCC)(CCCCCC)CCCCCC)CCCCCCCCCCCCC.O=S(C(F)(F)F)(=O)[N-]S(=O)(=O)C(F)(F)F,17,1,297,17
285.65,0.1,0.139,Training,trihexyltetradecylphosphonium bis(trifluoromethylsulfonyl)imide,CCCCCCCCCCCCCC[P+](CCCCCC)(CCCCCC)CCCCCC.C(F)(F)(F)S(=O)(=O)[N-]S(=O)(=O)C(F)(F)F,C(CCCCCCC)CCCCCC[P+](CCCCCC)(CCCCCC)CCCCCC.O=S(C(F)(F)F)(=O)[N-]S(C(F)(F)F)(=O)=O,17,1,297,17
285.65,0.1,0.139,Training,trihexyltetradecylphosphonium bis(trifluoromethylsulfonyl)imide,CCCCCCCCCCCCCC[P+](CCCCCC)(CCCCCC)CCCCCC.C(F)(F)(F)S(=O)(=O)[N-]S(=O)(=O)C(F)(F)F,C(CC[P+](CCCCCC)(CCCCCC)CCCCCC)CCCCCCCCCCC.FC(F)(F)S(=O)(=O)[N-]S(=O)(=O)C(F)(F)F,17,1,297,17