T/K,P/MPa,TC/W m-1 K-1,Data type,Name,SMILES,Normalized SMILES,index,P/bar,RANDOM,IL
323.0,0.1,0.126,Testing,1-octyl-3-methylimidazolium bis(trifluoromethylsulfonyl)imide,CCCCCCCCN1C=C[N+](=C1)C.C(F)(F)(F)S(=O)(=O)[N-]S(=O)(=O)C(F)(F)F,O=S(C(F)(F)F)([N-]S(=O)(=O)C(F)(F)F)=O.[n+]1(cn(CCCCCCCC)cc1)C,30,1,398,30
323.0,0.1,0.126,Testing,1-octyl-3-methylimidazolium bis(trifluoromethylsulfonyl)imide,CCCCCCCCN1C=C[N+](=C1)C.C(F)(F)(F)S(=O)(=O)[N-]S(=O)(=O)C(F)(F)F,FC(F)(S([N-]S(=O)(C(F)(F)F)=O)(=O)=O)F.[n+]1(C)ccn(c1)CCCCCCCC,30,1,398,30
323.0,0.1,0.126,Testing,1-octyl-3-methylimidazolium bis(trifluoromethylsulfonyl)imide,CCCCCCCCN1C=C[N+](=C1)C.C(F)(F)(F)S(=O)(=O)[N-]S(=O)(=O)C(F)(F)F,C(CCn1c[n+](cc1)C)CCCCC.FC(F)(S([N-]S(C(F)(F)F)(=O)=O)(=O)=O)F,30,1,398,30
333.0,0.1,0.126,Training,1-octyl-3-methylimidazolium bis(trifluoromethylsulfonyl)imide,CCCCCCCCN1C=C[N+](=C1)C.C(F)(F)(F)S(=O)(=O)[N-]S(=O)(=O)C(F)(F)F,CCCCCCCCn1cc[n+](C)c1.O=S(=O)([N-]S(=O)(=O)C(F)(F)F)C(F)(F)F,30,1,399,30
333.0,0.1,0.126,Training,1-octyl-3-methylimidazolium bis(trifluoromethylsulfonyl)imide,CCCCCCCCN1C=C[N+](=C1)C.C(F)(F)(F)S(=O)(=O)[N-]S(=O)(=O)C(F)(F)F,C(CC)CCCCCn1c[n+](C)cc1.O=S(C(F)(F)F)([N-]S(C(F)(F)F)(=O)=O)=O,30,1,399,30
333.0,0.1,0.126,Training,1-octyl-3-methylimidazolium bis(trifluoromethylsulfonyl)imide,CCCCCCCCN1C=C[N+](=C1)C.C(F)(F)(F)S(=O)(=O)[N-]S(=O)(=O)C(F)(F)F,O=S([N-]S(C(F)(F)F)(=O)=O)(C(F)(F)F)=O.c1[n+](cn(CCCCCCCC)c1)C,30,1,399,30
333.0,0.1,0.126,Training,1-octyl-3-methylimidazolium bis(trifluoromethylsulfonyl)imide,CCCCCCCCN1C=C[N+](=C1)C.C(F)(F)(F)S(=O)(=O)[N-]S(=O)(=O)C(F)(F)F,C(CCn1cc[n+](C)c1)CCCCC.[N-](S(C(F)(F)F)(=O)=O)S(=O)(C(F)(F)F)=O,30,1,399,30
333.0,0.1,0.126,Training,1-octyl-3-methylimidazolium bis(trifluoromethylsulfonyl)imide,CCCCCCCCN1C=C[N+](=C1)C.C(F)(F)(F)S(=O)(=O)[N-]S(=O)(=O)C(F)(F)F,C(CCCCn1c[n+](cc1)C)CCC.FC(S([N-]S(C(F)(F)F)(=O)=O)(=O)=O)(F)F,30,1,399,30
333.0,0.1,0.126,Training,1-octyl-3-methylimidazolium bis(trifluoromethylsulfonyl)imide,CCCCCCCCN1C=C[N+](=C1)C.C(F)(F)(F)S(=O)(=O)[N-]S(=O)(=O)C(F)(F)F,CCCCCCCCn1c[n+](C)cc1.O=S([N-]S(C(F)(F)F)(=O)=O)(=O)C(F)(F)F,30,1,399,30
333.0,0.1,0.126,Training,1-octyl-3-methylimidazolium bis(trifluoromethylsulfonyl)imide,CCCCCCCCN1C=C[N+](=C1)C.C(F)(F)(F)S(=O)(=O)[N-]S(=O)(=O)C(F)(F)F,O=S(=O)(C(F)(F)F)[N-]S(C(F)(F)F)(=O)=O.c1c[n+](C)cn1CCCCCCCC,30,1,399,30
333.0,0.1,0.126,Training,1-octyl-3-methylimidazolium bis(trifluoromethylsulfonyl)imide,CCCCCCCCN1C=C[N+](=C1)C.C(F)(F)(F)S(=O)(=O)[N-]S(=O)(=O)C(F)(F)F,C(S(=O)([N-]S(=O)(=O)C(F)(F)F)=O)(F)(F)F.CCCCCCCCn1cc[n+](c1)C,30,1,399,30
333.0,0.1,0.126,Training,1-octyl-3-methylimidazolium bis(trifluoromethylsulfonyl)imide,CCCCCCCCN1C=C[N+](=C1)C.C(F)(F)(F)S(=O)(=O)[N-]S(=O)(=O)C(F)(F)F,C(n1cc[n+](c1)C)CCCCCCC.FC(S(=O)(=O)[N-]S(C(F)(F)F)(=O)=O)(F)F,30,1,399,30
333.0,0.1,0.126,Training,1-octyl-3-methylimidazolium bis(trifluoromethylsulfonyl)imide,CCCCCCCCN1C=C[N+](=C1)C.C(F)(F)(F)S(=O)(=O)[N-]S(=O)(=O)C(F)(F)F,C(CCCCCCC)n1c[n+](C)cc1.C(F)(S([N-]S(C(F)(F)F)(=O)=O)(=O)=O)(F)F,30,1,399,30
343.0,0.1,0.125,Training,1-octyl-3-methylimidazolium bis(trifluoromethylsulfonyl)imide,CCCCCCCCN1C=C[N+](=C1)C.C(F)(F)(F)S(=O)(=O)[N-]S(=O)(=O)C(F)(F)F,CCCCCCCCn1cc[n+](C)c1.O=S(=O)([N-]S(=O)(=O)C(F)(F)F)C(F)(F)F,30,1,400,30
343.0,0.1,0.125,Training,1-octyl-3-methylimidazolium bis(trifluoromethylsulfonyl)imide,CCCCCCCCN1C=C[N+](=C1)C.C(F)(F)(F)S(=O)(=O)[N-]S(=O)(=O)C(F)(F)F,S(=O)(=O)([N-]S(=O)(C(F)(F)F)=O)C(F)(F)F.c1n(CCCCCCCC)c[n+](c1)C,30,1,400,30
343.0,0.1,0.125,Training,1-octyl-3-methylimidazolium bis(trifluoromethylsulfonyl)imide,CCCCCCCCN1C=C[N+](=C1)C.C(F)(F)(F)S(=O)(=O)[N-]S(=O)(=O)C(F)(F)F,C(S(=O)(=O)[N-]S(C(F)(F)F)(=O)=O)(F)(F)F.CCCCCCCCn1cc[n+](c1)C,30,1,400,30
343.0,0.1,0.125,Training,1-octyl-3-methylimidazolium bis(trifluoromethylsulfonyl)imide,CCCCCCCCN1C=C[N+](=C1)C.C(F)(F)(F)S(=O)(=O)[N-]S(=O)(=O)C(F)(F)F,FC(F)(S(=O)(=O)[N-]S(C(F)(F)F)(=O)=O)F.c1cn(CCCCCCCC)c[n+]1C,30,1,400,30
343.0,0.1,0.125,Training,1-octyl-3-methylimidazolium bis(trifluoromethylsulfonyl)imide,CCCCCCCCN1C=C[N+](=C1)C.C(F)(F)(F)S(=O)(=O)[N-]S(=O)(=O)C(F)(F)F,C(C)CCCCCCn1c[n+](cc1)C.O=S(=O)(C(F)(F)F)[N-]S(=O)(=O)C(F)(F)F,30,1,400,30
343.0,0.1,0.125,Training,1-octyl-3-methylimidazolium bis(trifluoromethylsulfonyl)imide,CCCCCCCCN1C=C[N+](=C1)C.C(F)(F)(F)S(=O)(=O)[N-]S(=O)(=O)C(F)(F)F,C(CCCCCCn1cc[n+](c1)C)C.FC(S(=O)([N-]S(=O)(C(F)(F)F)=O)=O)(F)F,30,1,400,30
343.0,0.1,0.125,Training,1-octyl-3-methylimidazolium bis(trifluoromethylsulfonyl)imide,CCCCCCCCN1C=C[N+](=C1)C.C(F)(F)(F)S(=O)(=O)[N-]S(=O)(=O)C(F)(F)F,C(CCn1cc[n+](C)c1)CCCCC.S(=O)([N-]S(=O)(C(F)(F)F)=O)(C(F)(F)F)=O,30,1,400,30
343.0,0.1,0.125,Training,1-octyl-3-methylimidazolium bis(trifluoromethylsulfonyl)imide,CCCCCCCCN1C=C[N+](=C1)C.C(F)(F)(F)S(=O)(=O)[N-]S(=O)(=O)C(F)(F)F,C(CCn1c[n+](C)cc1)CCCCC.O=S(=O)([N-]S(=O)(=O)C(F)(F)F)C(F)(F)F,30,1,400,30
343.0,0.1,0.125,Training,1-octyl-3-methylimidazolium bis(trifluoromethylsulfonyl)imide,CCCCCCCCN1C=C[N+](=C1)C.C(F)(F)(F)S(=O)(=O)[N-]S(=O)(=O)C(F)(F)F,C(S(=O)(=O)[N-]S(C(F)(F)F)(=O)=O)(F)(F)F.c1[n+](C)ccn1CCCCCCCC,30,1,400,30
343.0,0.1,0.125,Training,1-octyl-3-methylimidazolium bis(trifluoromethylsulfonyl)imide,CCCCCCCCN1C=C[N+](=C1)C.C(F)(F)(F)S(=O)(=O)[N-]S(=O)(=O)C(F)(F)F,C(CCCC)CCCn1c[n+](cc1)C.O=S([N-]S(=O)(C(F)(F)F)=O)(=O)C(F)(F)F,30,1,400,30
353.0,0.1,0.126,Training,1-octyl-3-methylimidazolium bis(trifluoromethylsulfonyl)imide,CCCCCCCCN1C=C[N+](=C1)C.C(F)(F)(F)S(=O)(=O)[N-]S(=O)(=O)C(F)(F)F,CCCCCCCCn1cc[n+](C)c1.O=S(=O)([N-]S(=O)(=O)C(F)(F)F)C(F)(F)F,30,1,401,30
353.0,0.1,0.126,Training,1-octyl-3-methylimidazolium bis(trifluoromethylsulfonyl)imide,CCCCCCCCN1C=C[N+](=C1)C.C(F)(F)(F)S(=O)(=O)[N-]S(=O)(=O)C(F)(F)F,C(CCCCCCn1c[n+](cc1)C)C.FC(S(=O)([N-]S(=O)(C(F)(F)F)=O)=O)(F)F,30,1,401,30
353.0,0.1,0.126,Training,1-octyl-3-methylimidazolium bis(trifluoromethylsulfonyl)imide,CCCCCCCCN1C=C[N+](=C1)C.C(F)(F)(F)S(=O)(=O)[N-]S(=O)(=O)C(F)(F)F,C[n+]1cn(CCCCCCCC)cc1.S(C(F)(F)F)(=O)(=O)[N-]S(=O)(=O)C(F)(F)F,30,1,401,30
353.0,0.1,0.126,Training,1-octyl-3-methylimidazolium bis(trifluoromethylsulfonyl)imide,CCCCCCCCN1C=C[N+](=C1)C.C(F)(F)(F)S(=O)(=O)[N-]S(=O)(=O)C(F)(F)F,C(F)(F)(F)S(=O)([N-]S(=O)(=O)C(F)(F)F)=O.c1c[n+](C)cn1CCCCCCCC,30,1,401,30
353.0,0.1,0.126,Training,1-octyl-3-methylimidazolium bis(trifluoromethylsulfonyl)imide,CCCCCCCCN1C=C[N+](=C1)C.C(F)(F)(F)S(=O)(=O)[N-]S(=O)(=O)C(F)(F)F,C(CCCC)CCCn1c[n+](cc1)C.[N-](S(=O)(C(F)(F)F)=O)S(=O)(=O)C(F)(F)F,30,1,401,30
353.0,0.1,0.126,Training,1-octyl-3-methylimidazolium bis(trifluoromethylsulfonyl)imide,CCCCCCCCN1C=C[N+](=C1)C.C(F)(F)(F)S(=O)(=O)[N-]S(=O)(=O)C(F)(F)F,C(CCCCCn1cc[n+](c1)C)CC.FC(F)(S(=O)([N-]S(C(F)(F)F)(=O)=O)=O)F,30,1,401,30
353.0,0.1,0.126,Training,1-octyl-3-methylimidazolium bis(trifluoromethylsulfonyl)imide,CCCCCCCCN1C=C[N+](=C1)C.C(F)(F)(F)S(=O)(=O)[N-]S(=O)(=O)C(F)(F)F,C(F)(S([N-]S(=O)(C(F)(F)F)=O)(=O)=O)(F)F.[n+]1(C)cn(cc1)CCCCCCCC,30,1,401,30
353.0,0.1,0.126,Training,1-octyl-3-methylimidazolium bis(trifluoromethylsulfonyl)imide,CCCCCCCCN1C=C[N+](=C1)C.C(F)(F)(F)S(=O)(=O)[N-]S(=O)(=O)C(F)(F)F,FC(F)(F)S(=O)(=O)[N-]S(C(F)(F)F)(=O)=O.c1n(c[n+](c1)C)CCCCCCCC,30,1,401,30
353.0,0.1,0.126,Training,1-octyl-3-methylimidazolium bis(trifluoromethylsulfonyl)imide,CCCCCCCCN1C=C[N+](=C1)C.C(F)(F)(F)S(=O)(=O)[N-]S(=O)(=O)C(F)(F)F,C(CCCC)CCCn1c[n+](C)cc1.S([N-]S(=O)(C(F)(F)F)=O)(C(F)(F)F)(=O)=O,30,1,401,30
353.0,0.1,0.126,Training,1-octyl-3-methylimidazolium bis(trifluoromethylsulfonyl)imide,CCCCCCCCN1C=C[N+](=C1)C.C(F)(F)(F)S(=O)(=O)[N-]S(=O)(=O)C(F)(F)F,C[n+]1ccn(c1)CCCCCCCC.[N-](S(=O)(=O)C(F)(F)F)S(=O)(=O)C(F)(F)F,30,1,401,30
293.0,0.1,0.132,Testing,1-decyl-3-methylimidazolium bis(trifluoromethylsulfonyl)imide,CCCCCCCCCCN1C=C[N+](=C1)C.C(F)(F)(F)S(=O)(=O)[N-]S(=O)(=O)C(F)(F)F,CCCCCCCCCCn1cc[n+](C)c1.O=S(=O)([N-]S(=O)(=O)C(F)(F)F)C(F)(F)F,31,1,402,31
293.0,0.1,0.132,Testing,1-decyl-3-methylimidazolium bis(trifluoromethylsulfonyl)imide,CCCCCCCCCCN1C=C[N+](=C1)C.C(F)(F)(F)S(=O)(=O)[N-]S(=O)(=O)C(F)(F)F,FC(F)(F)S(=O)(=O)[N-]S(C(F)(F)F)(=O)=O.c1cn(c[n+]1C)CCCCCCCCCC,31,1,402,31
293.0,0.1,0.132,Testing,1-decyl-3-methylimidazolium bis(trifluoromethylsulfonyl)imide,CCCCCCCCCCN1C=C[N+](=C1)C.C(F)(F)(F)S(=O)(=O)[N-]S(=O)(=O)C(F)(F)F,O=S(C(F)(F)F)([N-]S(=O)(=O)C(F)(F)F)=O.n1(CCCCCCCCCC)c[n+](cc1)C,31,1,402,31
293.0,0.1,0.132,Testing,1-decyl-3-methylimidazolium bis(trifluoromethylsulfonyl)imide,CCCCCCCCCCN1C=C[N+](=C1)C.C(F)(F)(F)S(=O)(=O)[N-]S(=O)(=O)C(F)(F)F,C(CCCCCC)CCCn1cc[n+](c1)C.FC(F)(F)S(=O)([N-]S(=O)(=O)C(F)(F)F)=O,31,1,402,31
293.0,0.1,0.132,Testing,1-decyl-3-methylimidazolium bis(trifluoromethylsulfonyl)imide,CCCCCCCCCCN1C=C[N+](=C1)C.C(F)(F)(F)S(=O)(=O)[N-]S(=O)(=O)C(F)(F)F,C(CCCCCn1cc[n+](C)c1)CCCC.C(F)(F)(F)S(=O)([N-]S(=O)(C(F)(F)F)=O)=O,31,1,402,31
293.0,0.1,0.132,Testing,1-decyl-3-methylimidazolium bis(trifluoromethylsulfonyl)imide,CCCCCCCCCCN1C=C[N+](=C1)C.C(F)(F)(F)S(=O)(=O)[N-]S(=O)(=O)C(F)(F)F,S(=O)(=O)([N-]S(=O)(C(F)(F)F)=O)C(F)(F)F.n1(CCCCCCCCCC)cc[n+](c1)C,31,1,402,31
293.0,0.1,0.132,Testing,1-decyl-3-methylimidazolium bis(trifluoromethylsulfonyl)imide,CCCCCCCCCCN1C=C[N+](=C1)C.C(F)(F)(F)S(=O)(=O)[N-]S(=O)(=O)C(F)(F)F,FC(F)(F)S(=O)([N-]S(C(F)(F)F)(=O)=O)=O.c1[n+](cn(CCCCCCCCCC)c1)C,31,1,402,31
293.0,0.1,0.132,Testing,1-decyl-3-methylimidazolium bis(trifluoromethylsulfonyl)imide,CCCCCCCCCCN1C=C[N+](=C1)C.C(F)(F)(F)S(=O)(=O)[N-]S(=O)(=O)C(F)(F)F,C(CCCCCCCn1c[n+](C)cc1)CC.O=S([N-]S(=O)(C(F)(F)F)=O)(C(F)(F)F)=O,31,1,402,31
293.0,0.1,0.132,Testing,1-decyl-3-methylimidazolium bis(trifluoromethylsulfonyl)imide,CCCCCCCCCCN1C=C[N+](=C1)C.C(F)(F)(F)S(=O)(=O)[N-]S(=O)(=O)C(F)(F)F,FC(F)(S([N-]S(=O)(C(F)(F)F)=O)(=O)=O)F.c1n(cc[n+]1C)CCCCCCCCCC,31,1,402,31
293.0,0.1,0.132,Testing,1-decyl-3-methylimidazolium bis(trifluoromethylsulfonyl)imide,CCCCCCCCCCN1C=C[N+](=C1)C.C(F)(F)(F)S(=O)(=O)[N-]S(=O)(=O)C(F)(F)F,C(CCCC)CCCCCn1cc[n+](C)c1.O=S(=O)(C(F)(F)F)[N-]S(=O)(C(F)(F)F)=O,31,1,402,31
303.0,0.1,0.131,Training,1-decyl-3-methylimidazolium bis(trifluoromethylsulfonyl)imide,CCCCCCCCCCN1C=C[N+](=C1)C.C(F)(F)(F)S(=O)(=O)[N-]S(=O)(=O)C(F)(F)F,CCCCCCCCCCn1cc[n+](C)c1.O=S(=O)([N-]S(=O)(=O)C(F)(F)F)C(F)(F)F,31,1,403,31
303.0,0.1,0.131,Training,1-decyl-3-methylimidazolium bis(trifluoromethylsulfonyl)imide,CCCCCCCCCCN1C=C[N+](=C1)C.C(F)(F)(F)S(=O)(=O)[N-]S(=O)(=O)C(F)(F)F,C(CCC)CCCCCCn1c[n+](cc1)C.O=S(=O)([N-]S(=O)(C(F)(F)F)=O)C(F)(F)F,31,1,403,31
303.0,0.1,0.131,Training,1-decyl-3-methylimidazolium bis(trifluoromethylsulfonyl)imide,CCCCCCCCCCN1C=C[N+](=C1)C.C(F)(F)(F)S(=O)(=O)[N-]S(=O)(=O)C(F)(F)F,C(CCCCCCCC)Cn1cc[n+](c1)C.C(F)(F)(F)S(=O)([N-]S(=O)(=O)C(F)(F)F)=O,31,1,403,31
303.0,0.1,0.131,Training,1-decyl-3-methylimidazolium bis(trifluoromethylsulfonyl)imide,CCCCCCCCCCN1C=C[N+](=C1)C.C(F)(F)(F)S(=O)(=O)[N-]S(=O)(=O)C(F)(F)F,C(Cn1c[n+](C)cc1)CCCCCCCC.[N-](S(=O)(=O)C(F)(F)F)S(C(F)(F)F)(=O)=O,31,1,403,31
303.0,0.1,0.131,Training,1-decyl-3-methylimidazolium bis(trifluoromethylsulfonyl)imide,CCCCCCCCCCN1C=C[N+](=C1)C.C(F)(F)(F)S(=O)(=O)[N-]S(=O)(=O)C(F)(F)F,C(CCCCn1c[n+](cc1)C)CCCCC.FC(F)(S(=O)([N-]S(=O)(C(F)(F)F)=O)=O)F,31,1,403,31
303.0,0.1,0.131,Training,1-decyl-3-methylimidazolium bis(trifluoromethylsulfonyl)imide,CCCCCCCCCCN1C=C[N+](=C1)C.C(F)(F)(F)S(=O)(=O)[N-]S(=O)(=O)C(F)(F)F,C(S([N-]S(C(F)(F)F)(=O)=O)(=O)=O)(F)(F)F.C[n+]1cn(CCCCCCCCCC)cc1,31,1,403,31
303.0,0.1,0.131,Training,1-decyl-3-methylimidazolium bis(trifluoromethylsulfonyl)imide,CCCCCCCCCCN1C=C[N+](=C1)C.C(F)(F)(F)S(=O)(=O)[N-]S(=O)(=O)C(F)(F)F,CCCCCCCCCCn1c[n+](cc1)C.O=S([N-]S(=O)(=O)C(F)(F)F)(C(F)(F)F)=O,31,1,403,31
303.0,0.1,0.131,Training,1-decyl-3-methylimidazolium bis(trifluoromethylsulfonyl)imide,CCCCCCCCCCN1C=C[N+](=C1)C.C(F)(F)(F)S(=O)(=O)[N-]S(=O)(=O)C(F)(F)F,C[n+]1cn(CCCCCCCCCC)cc1.FC(F)(S([N-]S(=O)(C(F)(F)F)=O)(=O)=O)F,31,1,403,31
303.0,0.1,0.131,Training,1-decyl-3-methylimidazolium bis(trifluoromethylsulfonyl)imide,CCCCCCCCCCN1C=C[N+](=C1)C.C(F)(F)(F)S(=O)(=O)[N-]S(=O)(=O)C(F)(F)F,O=S([N-]S(C(F)(F)F)(=O)=O)(=O)C(F)(F)F.c1cn(CCCCCCCCCC)c[n+]1C,31,1,403,31
303.0,0.1,0.131,Training,1-decyl-3-methylimidazolium bis(trifluoromethylsulfonyl)imide,CCCCCCCCCCN1C=C[N+](=C1)C.C(F)(F)(F)S(=O)(=O)[N-]S(=O)(=O)C(F)(F)F,O=S(=O)([N-]S(C(F)(F)F)(=O)=O)C(F)(F)F.n1(cc[n+](c1)C)CCCCCCCCCC,31,1,403,31
313.0,0.1,0.13,Training,1-decyl-3-methylimidazolium bis(trifluoromethylsulfonyl)imide,CCCCCCCCCCN1C=C[N+](=C1)C.C(F)(F)(F)S(=O)(=O)[N-]S(=O)(=O)C(F)(F)F,CCCCCCCCCCn1cc[n+](C)c1.O=S(=O)([N-]S(=O)(=O)C(F)(F)F)C(F)(F)F,31,1,404,31
313.0,0.1,0.13,Training,1-decyl-3-methylimidazolium bis(trifluoromethylsulfonyl)imide,CCCCCCCCCCN1C=C[N+](=C1)C.C(F)(F)(F)S(=O)(=O)[N-]S(=O)(=O)C(F)(F)F,O=S([N-]S(C(F)(F)F)(=O)=O)(=O)C(F)(F)F.c1n(cc[n+]1C)CCCCCCCCCC,31,1,404,31
313.0,0.1,0.13,Training,1-decyl-3-methylimidazolium bis(trifluoromethylsulfonyl)imide,CCCCCCCCCCN1C=C[N+](=C1)C.C(F)(F)(F)S(=O)(=O)[N-]S(=O)(=O)C(F)(F)F,C(CCCCn1cc[n+](c1)C)CCCCC.FC(F)(F)S(=O)([N-]S(=O)(C(F)(F)F)=O)=O,31,1,404,31
313.0,0.1,0.13,Training,1-decyl-3-methylimidazolium bis(trifluoromethylsulfonyl)imide,CCCCCCCCCCN1C=C[N+](=C1)C.C(F)(F)(F)S(=O)(=O)[N-]S(=O)(=O)C(F)(F)F,C(CCCCn1c[n+](cc1)C)CCCCC.O=S(C(F)(F)F)(=O)[N-]S(=O)(=O)C(F)(F)F,31,1,404,31
313.0,0.1,0.13,Training,1-decyl-3-methylimidazolium bis(trifluoromethylsulfonyl)imide,CCCCCCCCCCN1C=C[N+](=C1)C.C(F)(F)(F)S(=O)(=O)[N-]S(=O)(=O)C(F)(F)F,S([N-]S(C(F)(F)F)(=O)=O)(=O)(C(F)(F)F)=O.n1(CCCCCCCCCC)cc[n+](C)c1,31,1,404,31
313.0,0.1,0.13,Training,1-decyl-3-methylimidazolium bis(trifluoromethylsulfonyl)imide,CCCCCCCCCCN1C=C[N+](=C1)C.C(F)(F)(F)S(=O)(=O)[N-]S(=O)(=O)C(F)(F)F,C(CCCn1cc[n+](c1)C)CCCCCC.FC(F)(S(=O)(=O)[N-]S(=O)(C(F)(F)F)=O)F,31,1,404,31
313.0,0.1,0.13,Training,1-decyl-3-methylimidazolium bis(trifluoromethylsulfonyl)imide,CCCCCCCCCCN1C=C[N+](=C1)C.C(F)(F)(F)S(=O)(=O)[N-]S(=O)(=O)C(F)(F)F,C[n+]1cn(cc1)CCCCCCCCCC.S(C(F)(F)F)(=O)(=O)[N-]S(=O)(C(F)(F)F)=O,31,1,404,31
313.0,0.1,0.13,Training,1-decyl-3-methylimidazolium bis(trifluoromethylsulfonyl)imide,CCCCCCCCCCN1C=C[N+](=C1)C.C(F)(F)(F)S(=O)(=O)[N-]S(=O)(=O)C(F)(F)F,O=S(C(F)(F)F)([N-]S(=O)(C(F)(F)F)=O)=O.[n+]1(cn(cc1)CCCCCCCCCC)C,31,1,404,31
313.0,0.1,0.13,Training,1-decyl-3-methylimidazolium bis(trifluoromethylsulfonyl)imide,CCCCCCCCCCN1C=C[N+](=C1)C.C(F)(F)(F)S(=O)(=O)[N-]S(=O)(=O)C(F)(F)F,C(CCCCCC)CCCn1c[n+](cc1)C.FC(F)(F)S(=O)([N-]S(=O)(=O)C(F)(F)F)=O,31,1,404,31
313.0,0.1,0.13,Training,1-decyl-3-methylimidazolium bis(trifluoromethylsulfonyl)imide,CCCCCCCCCCN1C=C[N+](=C1)C.C(F)(F)(F)S(=O)(=O)[N-]S(=O)(=O)C(F)(F)F,C(S(=O)(=O)[N-]S(C(F)(F)F)(=O)=O)(F)(F)F.CCCCCCCCCCn1cc[n+](C)c1,31,1,404,31
323.0,0.1,0.129,Training,1-decyl-3-methylimidazolium bis(trifluoromethylsulfonyl)imide,CCCCCCCCCCN1C=C[N+](=C1)C.C(F)(F)(F)S(=O)(=O)[N-]S(=O)(=O)C(F)(F)F,CCCCCCCCCCn1cc[n+](C)c1.O=S(=O)([N-]S(=O)(=O)C(F)(F)F)C(F)(F)F,31,1,405,31
323.0,0.1,0.129,Training,1-decyl-3-methylimidazolium bis(trifluoromethylsulfonyl)imide,CCCCCCCCCCN1C=C[N+](=C1)C.C(F)(F)(F)S(=O)(=O)[N-]S(=O)(=O)C(F)(F)F,CCCCCCCCCCn1cc[n+](C)c1.O=S([N-]S(C(F)(F)F)(=O)=O)(C(F)(F)F)=O,31,1,405,31
323.0,0.1,0.129,Training,1-decyl-3-methylimidazolium bis(trifluoromethylsulfonyl)imide,CCCCCCCCCCN1C=C[N+](=C1)C.C(F)(F)(F)S(=O)(=O)[N-]S(=O)(=O)C(F)(F)F,[N-](S(=O)(=O)C(F)(F)F)S(=O)(=O)C(F)(F)F.[n+]1(cn(cc1)CCCCCCCCCC)C,31,1,405,31
323.0,0.1,0.129,Training,1-decyl-3-methylimidazolium bis(trifluoromethylsulfonyl)imide,CCCCCCCCCCN1C=C[N+](=C1)C.C(F)(F)(F)S(=O)(=O)[N-]S(=O)(=O)C(F)(F)F,FC(F)(S(=O)(=O)[N-]S(=O)(C(F)(F)F)=O)F.c1n(cc[n+]1C)CCCCCCCCCC,31,1,405,31
323.0,0.1,0.129,Training,1-decyl-3-methylimidazolium bis(trifluoromethylsulfonyl)imide,CCCCCCCCCCN1C=C[N+](=C1)C.C(F)(F)(F)S(=O)(=O)[N-]S(=O)(=O)C(F)(F)F,FC(S(=O)([N-]S(=O)(C(F)(F)F)=O)=O)(F)F.c1n(cc[n+]1C)CCCCCCCCCC,31,1,405,31
323.0,0.1,0.129,Training,1-decyl-3-methylimidazolium bis(trifluoromethylsulfonyl)imide,CCCCCCCCCCN1C=C[N+](=C1)C.C(F)(F)(F)S(=O)(=O)[N-]S(=O)(=O)C(F)(F)F,C(S([N-]S(=O)(=O)C(F)(F)F)(=O)=O)(F)(F)F.c1c[n+](cn1CCCCCCCCCC)C,31,1,405,31
323.0,0.1,0.129,Training,1-decyl-3-methylimidazolium bis(trifluoromethylsulfonyl)imide,CCCCCCCCCCN1C=C[N+](=C1)C.C(F)(F)(F)S(=O)(=O)[N-]S(=O)(=O)C(F)(F)F,C(CCn1cc[n+](c1)C)CCCCCCC.C(F)(F)(F)S([N-]S(=O)(C(F)(F)F)=O)(=O)=O,31,1,405,31
323.0,0.1,0.129,Training,1-decyl-3-methylimidazolium bis(trifluoromethylsulfonyl)imide,CCCCCCCCCCN1C=C[N+](=C1)C.C(F)(F)(F)S(=O)(=O)[N-]S(=O)(=O)C(F)(F)F,C(CCCCCCC)CCn1c[n+](cc1)C.C(S(=O)([N-]S(C(F)(F)F)(=O)=O)=O)(F)(F)F,31,1,405,31
323.0,0.1,0.129,Training,1-decyl-3-methylimidazolium bis(trifluoromethylsulfonyl)imide,CCCCCCCCCCN1C=C[N+](=C1)C.C(F)(F)(F)S(=O)(=O)[N-]S(=O)(=O)C(F)(F)F,FC(S(=O)(=O)[N-]S(C(F)(F)F)(=O)=O)(F)F.c1cn(c[n+]1C)CCCCCCCCCC,31,1,405,31
323.0,0.1,0.129,Training,1-decyl-3-methylimidazolium bis(trifluoromethylsulfonyl)imide,CCCCCCCCCCN1C=C[N+](=C1)C.C(F)(F)(F)S(=O)(=O)[N-]S(=O)(=O)C(F)(F)F,C(CCCCC)CCCCn1cc[n+](c1)C.S(=O)([N-]S(C(F)(F)F)(=O)=O)(=O)C(F)(F)F,31,1,405,31
333.0,0.1,0.128,Training,1-decyl-3-methylimidazolium bis(trifluoromethylsulfonyl)imide,CCCCCCCCCCN1C=C[N+](=C1)C.C(F)(F)(F)S(=O)(=O)[N-]S(=O)(=O)C(F)(F)F,CCCCCCCCCCn1cc[n+](C)c1.O=S(=O)([N-]S(=O)(=O)C(F)(F)F)C(F)(F)F,31,1,406,31
333.0,0.1,0.128,Training,1-decyl-3-methylimidazolium bis(trifluoromethylsulfonyl)imide,CCCCCCCCCCN1C=C[N+](=C1)C.C(F)(F)(F)S(=O)(=O)[N-]S(=O)(=O)C(F)(F)F,O=S([N-]S(=O)(=O)C(F)(F)F)(C(F)(F)F)=O.n1(c[n+](C)cc1)CCCCCCCCCC,31,1,406,31
333.0,0.1,0.128,Training,1-decyl-3-methylimidazolium bis(trifluoromethylsulfonyl)imide,CCCCCCCCCCN1C=C[N+](=C1)C.C(F)(F)(F)S(=O)(=O)[N-]S(=O)(=O)C(F)(F)F,C(CCCCCCC)CCn1c[n+](C)cc1.C(F)(F)(F)S(=O)(=O)[N-]S(=O)(=O)C(F)(F)F,31,1,406,31
333.0,0.1,0.128,Training,1-decyl-3-methylimidazolium bis(trifluoromethylsulfonyl)imide,CCCCCCCCCCN1C=C[N+](=C1)C.C(F)(F)(F)S(=O)(=O)[N-]S(=O)(=O)C(F)(F)F,[N-](S(C(F)(F)F)(=O)=O)S(=O)(=O)C(F)(F)F.c1cn(CCCCCCCCCC)c[n+]1C,31,1,406,31
333.0,0.1,0.128,Training,1-decyl-3-methylimidazolium bis(trifluoromethylsulfonyl)imide,CCCCCCCCCCN1C=C[N+](=C1)C.C(F)(F)(F)S(=O)(=O)[N-]S(=O)(=O)C(F)(F)F,C(CCCCCn1cc[n+](C)c1)CCCC.[N-](S(=O)(C(F)(F)F)=O)S(=O)(C(F)(F)F)=O,31,1,406,31
333.0,0.1,0.128,Training,1-decyl-3-methylimidazolium bis(trifluoromethylsulfonyl)imide,CCCCCCCCCCN1C=C[N+](=C1)C.C(F)(F)(F)S(=O)(=O)[N-]S(=O)(=O)C(F)(F)F,C[n+]1cn(CCCCCCCCCC)cc1.FC(F)(F)S(=O)(=O)[N-]S(=O)(=O)C(F)(F)F,31,1,406,31
333.0,0.1,0.128,Training,1-decyl-3-methylimidazolium bis(trifluoromethylsulfonyl)imide,CCCCCCCCCCN1C=C[N+](=C1)C.C(F)(F)(F)S(=O)(=O)[N-]S(=O)(=O)C(F)(F)F,C(CC)CCCCCCCn1cc[n+](c1)C.FC(F)(F)S([N-]S(=O)(=O)C(F)(F)F)(=O)=O,31,1,406,31
333.0,0.1,0.128,Training,1-decyl-3-methylimidazolium bis(trifluoromethylsulfonyl)imide,CCCCCCCCCCN1C=C[N+](=C1)C.C(F)(F)(F)S(=O)(=O)[N-]S(=O)(=O)C(F)(F)F,C(CCC)CCCCCCn1c[n+](cc1)C.C(S(=O)(=O)[N-]S(C(F)(F)F)(=O)=O)(F)(F)F,31,1,406,31
333.0,0.1,0.128,Training,1-decyl-3-methylimidazolium bis(trifluoromethylsulfonyl)imide,CCCCCCCCCCN1C=C[N+](=C1)C.C(F)(F)(F)S(=O)(=O)[N-]S(=O)(=O)C(F)(F)F,S(=O)(=O)(C(F)(F)F)[N-]S(=O)(=O)C(F)(F)F.[n+]1(ccn(c1)CCCCCCCCCC)C,31,1,406,31
333.0,0.1,0.128,Training,1-decyl-3-methylimidazolium bis(trifluoromethylsulfonyl)imide,CCCCCCCCCCN1C=C[N+](=C1)C.C(F)(F)(F)S(=O)(=O)[N-]S(=O)(=O)C(F)(F)F,FC(S(=O)([N-]S(=O)(C(F)(F)F)=O)=O)(F)F.n1(CCCCCCCCCC)c[n+](C)cc1,31,1,406,31
343.0,0.1,0.128,Training,1-decyl-3-methylimidazolium bis(trifluoromethylsulfonyl)imide,CCCCCCCCCCN1C=C[N+](=C1)C.C(F)(F)(F)S(=O)(=O)[N-]S(=O)(=O)C(F)(F)F,CCCCCCCCCCn1cc[n+](C)c1.O=S(=O)([N-]S(=O)(=O)C(F)(F)F)C(F)(F)F,31,1,407,31
343.0,0.1,0.128,Training,1-decyl-3-methylimidazolium bis(trifluoromethylsulfonyl)imide,CCCCCCCCCCN1C=C[N+](=C1)C.C(F)(F)(F)S(=O)(=O)[N-]S(=O)(=O)C(F)(F)F,FC(F)(S(=O)([N-]S(C(F)(F)F)(=O)=O)=O)F.c1[n+](cn(c1)CCCCCCCCCC)C,31,1,407,31
343.0,0.1,0.128,Training,1-decyl-3-methylimidazolium bis(trifluoromethylsulfonyl)imide,CCCCCCCCCCN1C=C[N+](=C1)C.C(F)(F)(F)S(=O)(=O)[N-]S(=O)(=O)C(F)(F)F,C[n+]1cn(cc1)CCCCCCCCCC.FC(F)(S(=O)(=O)[N-]S(C(F)(F)F)(=O)=O)F,31,1,407,31