T/K,P/MPa,TC/W m-1 K-1,Data type,Name,SMILES,Normalized SMILES,index,P/bar,RANDOM,IL
298.36,0.1,0.155,Training,tributylmethylphosphonium methylsulfate,CCCC[P+](C)(CCCC)CCCC.COS(=O)(=O)[O-],C([P+](C)(CCCC)CCCC)CCC.O=S([O-])(=O)OC,18,1,306,18
298.36,0.1,0.155,Training,tributylmethylphosphonium methylsulfate,CCCC[P+](C)(CCCC)CCCC.COS(=O)(=O)[O-],CCCC[P+](C)(CCCC)CCCC.O(S(=O)([O-])=O)C,18,1,306,18
298.36,0.1,0.155,Training,tributylmethylphosphonium methylsulfate,CCCC[P+](C)(CCCC)CCCC.COS(=O)(=O)[O-],C(C[P+](CCCC)(C)CCCC)CC.O=S([O-])(=O)OC,18,1,306,18
298.36,0.1,0.155,Training,tributylmethylphosphonium methylsulfate,CCCC[P+](C)(CCCC)CCCC.COS(=O)(=O)[O-],C([P+](CCCC)(C)CCCC)CCC.O(C)S([O-])(=O)=O,18,1,306,18
298.36,0.1,0.155,Training,tributylmethylphosphonium methylsulfate,CCCC[P+](C)(CCCC)CCCC.COS(=O)(=O)[O-],CCCC[P+](C)(CCCC)CCCC.O=S(OC)([O-])=O,18,1,306,18
298.36,0.1,0.155,Training,tributylmethylphosphonium methylsulfate,CCCC[P+](C)(CCCC)CCCC.COS(=O)(=O)[O-],CCCC[P+](CCCC)(CCCC)C.[O-]S(OC)(=O)=O,18,1,306,18
298.36,0.1,0.155,Training,tributylmethylphosphonium methylsulfate,CCCC[P+](C)(CCCC)CCCC.COS(=O)(=O)[O-],C([P+](CCCC)(CCCC)C)CCC.O=S([O-])(OC)=O,18,1,306,18
298.36,0.1,0.155,Training,tributylmethylphosphonium methylsulfate,CCCC[P+](C)(CCCC)CCCC.COS(=O)(=O)[O-],C(C)CC[P+](C)(CCCC)CCCC.S(=O)(OC)([O-])=O,18,1,306,18
298.36,0.1,0.155,Training,tributylmethylphosphonium methylsulfate,CCCC[P+](C)(CCCC)CCCC.COS(=O)(=O)[O-],C([P+](C)(CCCC)CCCC)CCC.O=S(=O)(OC)[O-],18,1,306,18
303.45,0.1,0.155,Training,tributylmethylphosphonium methylsulfate,CCCC[P+](C)(CCCC)CCCC.COS(=O)(=O)[O-],CCCC[P+](C)(CCCC)CCCC.COS(=O)(=O)[O-],18,1,307,18
303.45,0.1,0.155,Training,tributylmethylphosphonium methylsulfate,CCCC[P+](C)(CCCC)CCCC.COS(=O)(=O)[O-],C(CCC)[P+](CCCC)(C)CCCC.O(S(=O)(=O)[O-])C,18,1,307,18
303.45,0.1,0.155,Training,tributylmethylphosphonium methylsulfate,CCCC[P+](C)(CCCC)CCCC.COS(=O)(=O)[O-],CCCC[P+](CCCC)(CCCC)C.S(=O)(=O)(OC)[O-],18,1,307,18
303.45,0.1,0.155,Training,tributylmethylphosphonium methylsulfate,CCCC[P+](C)(CCCC)CCCC.COS(=O)(=O)[O-],C(CC)C[P+](C)(CCCC)CCCC.O(C)S([O-])(=O)=O,18,1,307,18
303.45,0.1,0.155,Training,tributylmethylphosphonium methylsulfate,CCCC[P+](C)(CCCC)CCCC.COS(=O)(=O)[O-],C[P+](CCCC)(CCCC)CCCC.O(S(=O)(=O)[O-])C,18,1,307,18
303.45,0.1,0.155,Training,tributylmethylphosphonium methylsulfate,CCCC[P+](C)(CCCC)CCCC.COS(=O)(=O)[O-],C([P+](CCCC)(C)CCCC)CCC.COS(=O)(=O)[O-],18,1,307,18
303.45,0.1,0.155,Training,tributylmethylphosphonium methylsulfate,CCCC[P+](C)(CCCC)CCCC.COS(=O)(=O)[O-],C(C[P+](CCCC)(CCCC)C)CC.S([O-])(=O)(=O)OC,18,1,307,18
303.45,0.1,0.155,Training,tributylmethylphosphonium methylsulfate,CCCC[P+](C)(CCCC)CCCC.COS(=O)(=O)[O-],CCCC[P+](CCCC)(CCCC)C.[O-]S(=O)(OC)=O,18,1,307,18
303.45,0.1,0.155,Training,tributylmethylphosphonium methylsulfate,CCCC[P+](C)(CCCC)CCCC.COS(=O)(=O)[O-],C(C)CC[P+](CCCC)(CCCC)C.O=S(OC)(=O)[O-],18,1,307,18
303.45,0.1,0.155,Training,tributylmethylphosphonium methylsulfate,CCCC[P+](C)(CCCC)CCCC.COS(=O)(=O)[O-],CCCC[P+](CCCC)(CCCC)C.S(OC)(=O)(=O)[O-],18,1,307,18
313.5,0.1,0.153,Testing,tributylmethylphosphonium methylsulfate,CCCC[P+](C)(CCCC)CCCC.COS(=O)(=O)[O-],CCCC[P+](C)(CCCC)CCCC.COS(=O)(=O)[O-],18,1,308,18
313.5,0.1,0.153,Testing,tributylmethylphosphonium methylsulfate,CCCC[P+](C)(CCCC)CCCC.COS(=O)(=O)[O-],C(CC[P+](CCCC)(CCCC)C)C.O=S([O-])(OC)=O,18,1,308,18
313.5,0.1,0.153,Testing,tributylmethylphosphonium methylsulfate,CCCC[P+](C)(CCCC)CCCC.COS(=O)(=O)[O-],CCCC[P+](CCCC)(C)CCCC.O(S([O-])(=O)=O)C,18,1,308,18
313.5,0.1,0.153,Testing,tributylmethylphosphonium methylsulfate,CCCC[P+](C)(CCCC)CCCC.COS(=O)(=O)[O-],C(CC[P+](CCCC)(C)CCCC)C.S([O-])(OC)(=O)=O,18,1,308,18
313.5,0.1,0.153,Testing,tributylmethylphosphonium methylsulfate,CCCC[P+](C)(CCCC)CCCC.COS(=O)(=O)[O-],C(CC)C[P+](C)(CCCC)CCCC.COS(=O)(=O)[O-],18,1,308,18
313.5,0.1,0.153,Testing,tributylmethylphosphonium methylsulfate,CCCC[P+](C)(CCCC)CCCC.COS(=O)(=O)[O-],C[P+](CCCC)(CCCC)CCCC.[O-]S(=O)(OC)=O,18,1,308,18
313.5,0.1,0.153,Testing,tributylmethylphosphonium methylsulfate,CCCC[P+](C)(CCCC)CCCC.COS(=O)(=O)[O-],C(CC)C[P+](CCCC)(CCCC)C.COS(=O)([O-])=O,18,1,308,18
313.5,0.1,0.153,Testing,tributylmethylphosphonium methylsulfate,CCCC[P+](C)(CCCC)CCCC.COS(=O)(=O)[O-],C([P+](C)(CCCC)CCCC)CCC.COS(=O)(=O)[O-],18,1,308,18
313.5,0.1,0.153,Testing,tributylmethylphosphonium methylsulfate,CCCC[P+](C)(CCCC)CCCC.COS(=O)(=O)[O-],C(C[P+](CCCC)(C)CCCC)CC.O=S([O-])(=O)OC,18,1,308,18
313.5,0.1,0.153,Testing,tributylmethylphosphonium methylsulfate,CCCC[P+](C)(CCCC)CCCC.COS(=O)(=O)[O-],O(C)S(=O)([O-])=O.[P+](CCCC)(C)(CCCC)CCCC,18,1,308,18
323.6,0.1,0.153,Testing,tributylmethylphosphonium methylsulfate,CCCC[P+](C)(CCCC)CCCC.COS(=O)(=O)[O-],CCCC[P+](C)(CCCC)CCCC.COS(=O)(=O)[O-],18,1,309,18
323.6,0.1,0.153,Testing,tributylmethylphosphonium methylsulfate,CCCC[P+](C)(CCCC)CCCC.COS(=O)(=O)[O-],C(CC)C[P+](CCCC)(C)CCCC.[O-]S(OC)(=O)=O,18,1,309,18
323.6,0.1,0.153,Testing,tributylmethylphosphonium methylsulfate,CCCC[P+](C)(CCCC)CCCC.COS(=O)(=O)[O-],C(C[P+](CCCC)(C)CCCC)CC.O=S(OC)(=O)[O-],18,1,309,18
323.6,0.1,0.153,Testing,tributylmethylphosphonium methylsulfate,CCCC[P+](C)(CCCC)CCCC.COS(=O)(=O)[O-],C(C)CC[P+](CCCC)(CCCC)C.O=S([O-])(OC)=O,18,1,309,18
323.6,0.1,0.153,Testing,tributylmethylphosphonium methylsulfate,CCCC[P+](C)(CCCC)CCCC.COS(=O)(=O)[O-],C([P+](CCCC)(CCCC)C)CCC.[O-]S(=O)(=O)OC,18,1,309,18
323.6,0.1,0.153,Testing,tributylmethylphosphonium methylsulfate,CCCC[P+](C)(CCCC)CCCC.COS(=O)(=O)[O-],C([P+](CCCC)(C)CCCC)CCC.O=S(=O)(OC)[O-],18,1,309,18
323.6,0.1,0.153,Testing,tributylmethylphosphonium methylsulfate,CCCC[P+](C)(CCCC)CCCC.COS(=O)(=O)[O-],C(C)CC[P+](CCCC)(CCCC)C.S(OC)([O-])(=O)=O,18,1,309,18
323.6,0.1,0.153,Testing,tributylmethylphosphonium methylsulfate,CCCC[P+](C)(CCCC)CCCC.COS(=O)(=O)[O-],CCCC[P+](C)(CCCC)CCCC.O(C)S([O-])(=O)=O,18,1,309,18
323.6,0.1,0.153,Testing,tributylmethylphosphonium methylsulfate,CCCC[P+](C)(CCCC)CCCC.COS(=O)(=O)[O-],C([P+](CCCC)(C)CCCC)CCC.S(OC)(=O)([O-])=O,18,1,309,18
323.6,0.1,0.153,Testing,tributylmethylphosphonium methylsulfate,CCCC[P+](C)(CCCC)CCCC.COS(=O)(=O)[O-],C(CC)C[P+](C)(CCCC)CCCC.S(=O)([O-])(=O)OC,18,1,309,18
333.58,0.1,0.153,Training,tributylmethylphosphonium methylsulfate,CCCC[P+](C)(CCCC)CCCC.COS(=O)(=O)[O-],CCCC[P+](C)(CCCC)CCCC.COS(=O)(=O)[O-],18,1,310,18
333.58,0.1,0.153,Training,tributylmethylphosphonium methylsulfate,CCCC[P+](C)(CCCC)CCCC.COS(=O)(=O)[O-],C(CC[P+](C)(CCCC)CCCC)C.O=S(=O)([O-])OC,18,1,310,18
333.58,0.1,0.153,Training,tributylmethylphosphonium methylsulfate,CCCC[P+](C)(CCCC)CCCC.COS(=O)(=O)[O-],C[P+](CCCC)(CCCC)CCCC.O=S([O-])(OC)=O,18,1,310,18
333.58,0.1,0.153,Training,tributylmethylphosphonium methylsulfate,CCCC[P+](C)(CCCC)CCCC.COS(=O)(=O)[O-],C(C[P+](CCCC)(C)CCCC)CC.S(OC)(=O)([O-])=O,18,1,310,18
333.58,0.1,0.153,Training,tributylmethylphosphonium methylsulfate,CCCC[P+](C)(CCCC)CCCC.COS(=O)(=O)[O-],CCCC[P+](CCCC)(C)CCCC.O=S(=O)(OC)[O-],18,1,310,18
333.58,0.1,0.153,Training,tributylmethylphosphonium methylsulfate,CCCC[P+](C)(CCCC)CCCC.COS(=O)(=O)[O-],S(OC)(=O)([O-])=O.[P+](CCCC)(CCCC)(CCCC)C,18,1,310,18
333.58,0.1,0.153,Training,tributylmethylphosphonium methylsulfate,CCCC[P+](C)(CCCC)CCCC.COS(=O)(=O)[O-],C(C)CC[P+](C)(CCCC)CCCC.S(OC)([O-])(=O)=O,18,1,310,18
333.58,0.1,0.153,Training,tributylmethylphosphonium methylsulfate,CCCC[P+](C)(CCCC)CCCC.COS(=O)(=O)[O-],C(C[P+](C)(CCCC)CCCC)CC.O(C)S(=O)(=O)[O-],18,1,310,18
333.58,0.1,0.153,Training,tributylmethylphosphonium methylsulfate,CCCC[P+](C)(CCCC)CCCC.COS(=O)(=O)[O-],C[P+](CCCC)(CCCC)CCCC.O=S(=O)(OC)[O-],18,1,310,18
333.58,0.1,0.153,Training,tributylmethylphosphonium methylsulfate,CCCC[P+](C)(CCCC)CCCC.COS(=O)(=O)[O-],C(CC)C[P+](C)(CCCC)CCCC.COS([O-])(=O)=O,18,1,310,18
343.61,0.1,0.153,Training,tributylmethylphosphonium methylsulfate,CCCC[P+](C)(CCCC)CCCC.COS(=O)(=O)[O-],CCCC[P+](C)(CCCC)CCCC.COS(=O)(=O)[O-],18,1,311,18
343.61,0.1,0.153,Training,tributylmethylphosphonium methylsulfate,CCCC[P+](C)(CCCC)CCCC.COS(=O)(=O)[O-],CCCC[P+](CCCC)(CCCC)C.O(C)S(=O)(=O)[O-],18,1,311,18
343.61,0.1,0.153,Training,tributylmethylphosphonium methylsulfate,CCCC[P+](C)(CCCC)CCCC.COS(=O)(=O)[O-],C(C)CC[P+](CCCC)(C)CCCC.[O-]S(=O)(=O)OC,18,1,311,18
343.61,0.1,0.153,Training,tributylmethylphosphonium methylsulfate,CCCC[P+](C)(CCCC)CCCC.COS(=O)(=O)[O-],C(CC[P+](C)(CCCC)CCCC)C.S(=O)(=O)(OC)[O-],18,1,311,18
343.61,0.1,0.153,Training,tributylmethylphosphonium methylsulfate,CCCC[P+](C)(CCCC)CCCC.COS(=O)(=O)[O-],CCCC[P+](CCCC)(CCCC)C.O=S([O-])(OC)=O,18,1,311,18
343.61,0.1,0.153,Training,tributylmethylphosphonium methylsulfate,CCCC[P+](C)(CCCC)CCCC.COS(=O)(=O)[O-],C(CC[P+](C)(CCCC)CCCC)C.[O-]S(OC)(=O)=O,18,1,311,18
343.61,0.1,0.153,Training,tributylmethylphosphonium methylsulfate,CCCC[P+](C)(CCCC)CCCC.COS(=O)(=O)[O-],C([P+](CCCC)(C)CCCC)CCC.O=S(=O)(OC)[O-],18,1,311,18
343.61,0.1,0.153,Training,tributylmethylphosphonium methylsulfate,CCCC[P+](C)(CCCC)CCCC.COS(=O)(=O)[O-],C(C[P+](CCCC)(C)CCCC)CC.O(C)S([O-])(=O)=O,18,1,311,18
343.61,0.1,0.153,Training,tributylmethylphosphonium methylsulfate,CCCC[P+](C)(CCCC)CCCC.COS(=O)(=O)[O-],C(C)CC[P+](CCCC)(C)CCCC.O=S(OC)(=O)[O-],18,1,311,18
343.61,0.1,0.153,Training,tributylmethylphosphonium methylsulfate,CCCC[P+](C)(CCCC)CCCC.COS(=O)(=O)[O-],C(C)CC[P+](C)(CCCC)CCCC.COS(=O)([O-])=O,18,1,311,18
353.51,0.1,0.153,Training,tributylmethylphosphonium methylsulfate,CCCC[P+](C)(CCCC)CCCC.COS(=O)(=O)[O-],CCCC[P+](C)(CCCC)CCCC.COS(=O)(=O)[O-],18,1,312,18
353.51,0.1,0.153,Training,tributylmethylphosphonium methylsulfate,CCCC[P+](C)(CCCC)CCCC.COS(=O)(=O)[O-],C(C)CC[P+](C)(CCCC)CCCC.[O-]S(OC)(=O)=O,18,1,312,18
353.51,0.1,0.153,Training,tributylmethylphosphonium methylsulfate,CCCC[P+](C)(CCCC)CCCC.COS(=O)(=O)[O-],C([P+](C)(CCCC)CCCC)CCC.O=S([O-])(=O)OC,18,1,312,18
353.51,0.1,0.153,Training,tributylmethylphosphonium methylsulfate,CCCC[P+](C)(CCCC)CCCC.COS(=O)(=O)[O-],C(CC[P+](CCCC)(C)CCCC)C.COS([O-])(=O)=O,18,1,312,18
353.51,0.1,0.153,Training,tributylmethylphosphonium methylsulfate,CCCC[P+](C)(CCCC)CCCC.COS(=O)(=O)[O-],C(CC)C[P+](CCCC)(C)CCCC.S(=O)(=O)([O-])OC,18,1,312,18
353.51,0.1,0.153,Training,tributylmethylphosphonium methylsulfate,CCCC[P+](C)(CCCC)CCCC.COS(=O)(=O)[O-],C(CC[P+](CCCC)(CCCC)C)C.O=S(OC)(=O)[O-],18,1,312,18
353.51,0.1,0.153,Training,tributylmethylphosphonium methylsulfate,CCCC[P+](C)(CCCC)CCCC.COS(=O)(=O)[O-],C[P+](CCCC)(CCCC)CCCC.O=S(=O)(OC)[O-],18,1,312,18
353.51,0.1,0.153,Training,tributylmethylphosphonium methylsulfate,CCCC[P+](C)(CCCC)CCCC.COS(=O)(=O)[O-],C(CC)C[P+](C)(CCCC)CCCC.S(=O)(OC)(=O)[O-],18,1,312,18
353.51,0.1,0.153,Training,tributylmethylphosphonium methylsulfate,CCCC[P+](C)(CCCC)CCCC.COS(=O)(=O)[O-],CCCC[P+](CCCC)(CCCC)C.[O-]S(OC)(=O)=O,18,1,312,18
353.51,0.1,0.153,Training,tributylmethylphosphonium methylsulfate,CCCC[P+](C)(CCCC)CCCC.COS(=O)(=O)[O-],C([P+](CCCC)(CCCC)C)CCC.[O-]S(=O)(=O)OC,18,1,312,18
298.15,0.1,0.169,Testing,tributylmethylammonium serinate,CCCC[N+](C)(CCCC)CCCC.C([C@@H](C(=O)[O-])N)O,CCCC[N+](C)(CCCC)CCCC.N[C@@H](CO)C(=O)[O-],19,1,313,19
298.15,0.1,0.169,Testing,tributylmethylammonium serinate,CCCC[N+](C)(CCCC)CCCC.C([C@@H](C(=O)[O-])N)O,CCCC[N+](C)(CCCC)CCCC.OC[C@H](N)C(=O)[O-],19,1,313,19
298.15,0.1,0.169,Testing,tributylmethylammonium serinate,CCCC[N+](C)(CCCC)CCCC.C([C@@H](C(=O)[O-])N)O,C(C)CC[N+](CCCC)(CCCC)C.C([C@H](N)C([O-])=O)O,19,1,313,19
298.15,0.1,0.169,Testing,tributylmethylammonium serinate,CCCC[N+](C)(CCCC)CCCC.C([C@@H](C(=O)[O-])N)O,C(CCC)[N+](CCCC)(C)CCCC.[O-]C([C@@H](N)CO)=O,19,1,313,19
298.15,0.1,0.169,Testing,tributylmethylammonium serinate,CCCC[N+](C)(CCCC)CCCC.C([C@@H](C(=O)[O-])N)O,C(CC[N+](C)(CCCC)CCCC)C.C(O)[C@@H](C([O-])=O)N,19,1,313,19
298.15,0.1,0.169,Testing,tributylmethylammonium serinate,CCCC[N+](C)(CCCC)CCCC.C([C@@H](C(=O)[O-])N)O,C([C@H](N)C(=O)[O-])O.[N+](C)(CCCC)(CCCC)CCCC,19,1,313,19
298.15,0.1,0.169,Testing,tributylmethylammonium serinate,CCCC[N+](C)(CCCC)CCCC.C([C@@H](C(=O)[O-])N)O,C(CC)C[N+](C)(CCCC)CCCC.O=C([O-])[C@@H](N)CO,19,1,313,19
298.15,0.1,0.169,Testing,tributylmethylammonium serinate,CCCC[N+](C)(CCCC)CCCC.C([C@@H](C(=O)[O-])N)O,CCCC[N+](CCCC)(C)CCCC.[C@@H](C(=O)[O-])(CO)N,19,1,313,19
298.15,0.1,0.169,Testing,tributylmethylammonium serinate,CCCC[N+](C)(CCCC)CCCC.C([C@@H](C(=O)[O-])N)O,C(CC)C[N+](CCCC)(C)CCCC.N[C@@H](CO)C(=O)[O-],19,1,313,19
298.15,0.1,0.169,Testing,tributylmethylammonium serinate,CCCC[N+](C)(CCCC)CCCC.C([C@@H](C(=O)[O-])N)O,C(CCC)[N+](C)(CCCC)CCCC.C([C@@H](C([O-])=O)N)O,19,1,313,19
303.15,0.1,0.168,Testing,tributylmethylammonium serinate,CCCC[N+](C)(CCCC)CCCC.C([C@@H](C(=O)[O-])N)O,CCCC[N+](C)(CCCC)CCCC.N[C@@H](CO)C(=O)[O-],19,1,314,19
303.15,0.1,0.168,Testing,tributylmethylammonium serinate,CCCC[N+](C)(CCCC)CCCC.C([C@@H](C(=O)[O-])N)O,C(CCC)[N+](CCCC)(C)CCCC.OC[C@H](N)C(=O)[O-],19,1,314,19
303.15,0.1,0.168,Testing,tributylmethylammonium serinate,CCCC[N+](C)(CCCC)CCCC.C([C@@H](C(=O)[O-])N)O,C(O)[C@H](N)C(=O)[O-].CCCC[N+](C)(CCCC)CCCC,19,1,314,19
303.15,0.1,0.168,Testing,tributylmethylammonium serinate,CCCC[N+](C)(CCCC)CCCC.C([C@@H](C(=O)[O-])N)O,C(CCC)[N+](CCCC)(CCCC)C.[C@H](C(=O)[O-])(N)CO,19,1,314,19
303.15,0.1,0.168,Testing,tributylmethylammonium serinate,CCCC[N+](C)(CCCC)CCCC.C([C@@H](C(=O)[O-])N)O,C(CC)C[N+](CCCC)(CCCC)C.C([O-])(=O)[C@@H](N)CO,19,1,314,19
303.15,0.1,0.168,Testing,tributylmethylammonium serinate,CCCC[N+](C)(CCCC)CCCC.C([C@@H](C(=O)[O-])N)O,C(O)[C@H](N)C(=O)[O-].C[N+](CCCC)(CCCC)CCCC,19,1,314,19
303.15,0.1,0.168,Testing,tributylmethylammonium serinate,CCCC[N+](C)(CCCC)CCCC.C([C@@H](C(=O)[O-])N)O,C([C@H](CO)N)(=O)[O-].C[N+](CCCC)(CCCC)CCCC,19,1,314,19
303.15,0.1,0.168,Testing,tributylmethylammonium serinate,CCCC[N+](C)(CCCC)CCCC.C([C@@H](C(=O)[O-])N)O,C([C@H](CO)N)([O-])=O.[N+](CCCC)(CCCC)(CCCC)C,19,1,314,19
303.15,0.1,0.168,Testing,tributylmethylammonium serinate,CCCC[N+](C)(CCCC)CCCC.C([C@@H](C(=O)[O-])N)O,C(C)CC[N+](CCCC)(CCCC)C.O=C([O-])[C@@H](N)CO,19,1,314,19
313.15,0.1,0.167,Training,tributylmethylammonium serinate,CCCC[N+](C)(CCCC)CCCC.C([C@@H](C(=O)[O-])N)O,CCCC[N+](C)(CCCC)CCCC.N[C@@H](CO)C(=O)[O-],19,1,315,19
313.15,0.1,0.167,Training,tributylmethylammonium serinate,CCCC[N+](C)(CCCC)CCCC.C([C@@H](C(=O)[O-])N)O,C(C)CC[N+](C)(CCCC)CCCC.C([C@@H](C([O-])=O)N)O,19,1,315,19
313.15,0.1,0.167,Training,tributylmethylammonium serinate,CCCC[N+](C)(CCCC)CCCC.C([C@@H](C(=O)[O-])N)O,O=C([O-])[C@@H](N)CO.[N+](CCCC)(CCCC)(CCCC)C,19,1,315,19
313.15,0.1,0.167,Training,tributylmethylammonium serinate,CCCC[N+](C)(CCCC)CCCC.C([C@@H](C(=O)[O-])N)O,C([C@@H](C([O-])=O)N)O.C([N+](CCCC)(CCCC)C)CCC,19,1,315,19
313.15,0.1,0.167,Training,tributylmethylammonium serinate,CCCC[N+](C)(CCCC)CCCC.C([C@@H](C(=O)[O-])N)O,CCCC[N+](C)(CCCC)CCCC.[C@@H](CO)(N)C([O-])=O,19,1,315,19
313.15,0.1,0.167,Training,tributylmethylammonium serinate,CCCC[N+](C)(CCCC)CCCC.C([C@@H](C(=O)[O-])N)O,C([N+](CCCC)(CCCC)C)CCC.N[C@H](C([O-])=O)CO,19,1,315,19
313.15,0.1,0.167,Training,tributylmethylammonium serinate,CCCC[N+](C)(CCCC)CCCC.C([C@@H](C(=O)[O-])N)O,C[N+](CCCC)(CCCC)CCCC.N[C@@H](CO)C([O-])=O,19,1,315,19
313.15,0.1,0.167,Training,tributylmethylammonium serinate,CCCC[N+](C)(CCCC)CCCC.C([C@@H](C(=O)[O-])N)O,CCCC[N+](C)(CCCC)CCCC.N[C@H](C(=O)[O-])CO,19,1,315,19
313.15,0.1,0.167,Training,tributylmethylammonium serinate,CCCC[N+](C)(CCCC)CCCC.C([C@@H](C(=O)[O-])N)O,C(CCC)[N+](CCCC)(C)CCCC.[C@@H](CO)(N)C([O-])=O,19,1,315,19
313.15,0.1,0.167,Training,tributylmethylammonium serinate,CCCC[N+](C)(CCCC)CCCC.C([C@@H](C(=O)[O-])N)O,C(C[N+](CCCC)(CCCC)C)CC.C([O-])(=O)[C@@H](N)CO,19,1,315,19
323.15,0.1,0.166,Testing,tributylmethylammonium serinate,CCCC[N+](C)(CCCC)CCCC.C([C@@H](C(=O)[O-])N)O,CCCC[N+](C)(CCCC)CCCC.N[C@@H](CO)C(=O)[O-],19,1,316,19
323.15,0.1,0.166,Testing,tributylmethylammonium serinate,CCCC[N+](C)(CCCC)CCCC.C([C@@H](C(=O)[O-])N)O,CCCC[N+](CCCC)(CCCC)C.OC[C@H](N)C([O-])=O,19,1,316,19
323.15,0.1,0.166,Testing,tributylmethylammonium serinate,CCCC[N+](C)(CCCC)CCCC.C([C@@H](C(=O)[O-])N)O,C(=O)([O-])[C@H](CO)N.C[N+](CCCC)(CCCC)CCCC,19,1,316,19
323.15,0.1,0.166,Testing,tributylmethylammonium serinate,CCCC[N+](C)(CCCC)CCCC.C([C@@H](C(=O)[O-])N)O,C(CCC)[N+](C)(CCCC)CCCC.O=C([C@H](CO)N)[O-],19,1,316,19
323.15,0.1,0.166,Testing,tributylmethylammonium serinate,CCCC[N+](C)(CCCC)CCCC.C([C@@H](C(=O)[O-])N)O,C(O)[C@@H](C([O-])=O)N.C([N+](C)(CCCC)CCCC)CCC,19,1,316,19
323.15,0.1,0.166,Testing,tributylmethylammonium serinate,CCCC[N+](C)(CCCC)CCCC.C([C@@H](C(=O)[O-])N)O,C(=O)([O-])[C@H](CO)N.CCCC[N+](C)(CCCC)CCCC,19,1,316,19
323.15,0.1,0.166,Testing,tributylmethylammonium serinate,CCCC[N+](C)(CCCC)CCCC.C([C@@H](C(=O)[O-])N)O,C([N+](CCCC)(C)CCCC)CCC.OC[C@@H](C(=O)[O-])N,19,1,316,19
323.15,0.1,0.166,Testing,tributylmethylammonium serinate,CCCC[N+](C)(CCCC)CCCC.C([C@@H](C(=O)[O-])N)O,CCCC[N+](CCCC)(C)CCCC.[O-]C([C@@H](N)CO)=O,19,1,316,19
323.15,0.1,0.166,Testing,tributylmethylammonium serinate,CCCC[N+](C)(CCCC)CCCC.C([C@@H](C(=O)[O-])N)O,C(CC[N+](CCCC)(C)CCCC)C.C([C@@H](N)CO)([O-])=O,19,1,316,19
323.15,0.1,0.166,Testing,tributylmethylammonium serinate,CCCC[N+](C)(CCCC)CCCC.C([C@@H](C(=O)[O-])N)O,CCCC[N+](CCCC)(C)CCCC.OC[C@@H](C([O-])=O)N,19,1,316,19
333.15,0.1,0.165,Testing,tributylmethylammonium serinate,CCCC[N+](C)(CCCC)CCCC.C([C@@H](C(=O)[O-])N)O,CCCC[N+](C)(CCCC)CCCC.N[C@@H](CO)C(=O)[O-],19,1,317,19
333.15,0.1,0.165,Testing,tributylmethylammonium serinate,CCCC[N+](C)(CCCC)CCCC.C([C@@H](C(=O)[O-])N)O,C(C)CC[N+](C)(CCCC)CCCC.N[C@@H](CO)C([O-])=O,19,1,317,19
333.15,0.1,0.165,Testing,tributylmethylammonium serinate,CCCC[N+](C)(CCCC)CCCC.C([C@@H](C(=O)[O-])N)O,C(CC[N+](CCCC)(CCCC)C)C.O=C([O-])[C@@H](N)CO,19,1,317,19
333.15,0.1,0.165,Testing,tributylmethylammonium serinate,CCCC[N+](C)(CCCC)CCCC.C([C@@H](C(=O)[O-])N)O,CCCC[N+](C)(CCCC)CCCC.N[C@H](C(=O)[O-])CO,19,1,317,19
333.15,0.1,0.165,Testing,tributylmethylammonium serinate,CCCC[N+](C)(CCCC)CCCC.C([C@@H](C(=O)[O-])N)O,C(CC[N+](CCCC)(CCCC)C)C.O=C([O-])[C@H](CO)N,19,1,317,19
333.15,0.1,0.165,Testing,tributylmethylammonium serinate,CCCC[N+](C)(CCCC)CCCC.C([C@@H](C(=O)[O-])N)O,C(CC)C[N+](C)(CCCC)CCCC.C([O-])([C@H](CO)N)=O,19,1,317,19
333.15,0.1,0.165,Testing,tributylmethylammonium serinate,CCCC[N+](C)(CCCC)CCCC.C([C@@H](C(=O)[O-])N)O,C[N+](CCCC)(CCCC)CCCC.[C@@H](CO)(N)C(=O)[O-],19,1,317,19
333.15,0.1,0.165,Testing,tributylmethylammonium serinate,CCCC[N+](C)(CCCC)CCCC.C([C@@H](C(=O)[O-])N)O,C([N+](CCCC)(CCCC)C)CCC.OC[C@@H](C([O-])=O)N,19,1,317,19
333.15,0.1,0.165,Testing,tributylmethylammonium serinate,CCCC[N+](C)(CCCC)CCCC.C([C@@H](C(=O)[O-])N)O,C(CC)C[N+](CCCC)(CCCC)C.N[C@@H](CO)C(=O)[O-],19,1,317,19
333.15,0.1,0.165,Testing,tributylmethylammonium serinate,CCCC[N+](C)(CCCC)CCCC.C([C@@H](C(=O)[O-])N)O,C(CC[N+](CCCC)(CCCC)C)C.O=C([C@H](CO)N)[O-],19,1,317,19
343.15,0.1,0.164,Testing,tributylmethylammonium serinate,CCCC[N+](C)(CCCC)CCCC.C([C@@H](C(=O)[O-])N)O,CCCC[N+](C)(CCCC)CCCC.N[C@@H](CO)C(=O)[O-],19,1,318,19
343.15,0.1,0.164,Testing,tributylmethylammonium serinate,CCCC[N+](C)(CCCC)CCCC.C([C@@H](C(=O)[O-])N)O,C(C)CC[N+](C)(CCCC)CCCC.O=C([C@@H](N)CO)[O-],19,1,318,19
343.15,0.1,0.164,Testing,tributylmethylammonium serinate,CCCC[N+](C)(CCCC)CCCC.C([C@@H](C(=O)[O-])N)O,C[N+](CCCC)(CCCC)CCCC.OC[C@@H](C([O-])=O)N,19,1,318,19
343.15,0.1,0.164,Testing,tributylmethylammonium serinate,CCCC[N+](C)(CCCC)CCCC.C([C@@H](C(=O)[O-])N)O,C(C[N+](CCCC)(C)CCCC)CC.OC[C@@H](C(=O)[O-])N,19,1,318,19
343.15,0.1,0.164,Testing,tributylmethylammonium serinate,CCCC[N+](C)(CCCC)CCCC.C([C@@H](C(=O)[O-])N)O,CCCC[N+](C)(CCCC)CCCC.OC[C@@H](C([O-])=O)N,19,1,318,19
343.15,0.1,0.164,Testing,tributylmethylammonium serinate,CCCC[N+](C)(CCCC)CCCC.C([C@@H](C(=O)[O-])N)O,C(C[N+](C)(CCCC)CCCC)CC.[O-]C([C@H](CO)N)=O,19,1,318,19
343.15,0.1,0.164,Testing,tributylmethylammonium serinate,CCCC[N+](C)(CCCC)CCCC.C([C@@H](C(=O)[O-])N)O,C(CCC)[N+](CCCC)(C)CCCC.[O-]C([C@@H](N)CO)=O,19,1,318,19
343.15,0.1,0.164,Testing,tributylmethylammonium serinate,CCCC[N+](C)(CCCC)CCCC.C([C@@H](C(=O)[O-])N)O,CCCC[N+](CCCC)(CCCC)C.[C@H](C(=O)[O-])(N)CO,19,1,318,19