T/K,P/MPa,TC/W m-1 K-1,Data type,Name,SMILES,Normalized SMILES,index,P/bar,RANDOM,IL
293.15,65.0,0.1222,Testing,1-butyl-1-methyl-piperidinium bis(trifluoromethylsulfonyl)imide,CCCC[N+]1(CCCCC1)C.C(F)(F)(F)S(=O)(=O)[N-]S(=O)(=O)C(F)(F)F,C([N+]1(C)CCCCC1)CCC.[N-](S(=O)(=O)C(F)(F)F)S(=O)(C(F)(F)F)=O,1,650,18,1
293.15,65.0,0.1222,Testing,1-butyl-1-methyl-piperidinium bis(trifluoromethylsulfonyl)imide,CCCC[N+]1(CCCCC1)C.C(F)(F)(F)S(=O)(=O)[N-]S(=O)(=O)C(F)(F)F,C[N+]1(CCCC)CCCCC1.FC(F)(F)S(=O)([N-]S(=O)(=O)C(F)(F)F)=O,1,650,18,1
303.15,0.1,0.1069,Testing,1-butyl-1-methyl-piperidinium bis(trifluoromethylsulfonyl)imide,CCCC[N+]1(CCCCC1)C.C(F)(F)(F)S(=O)(=O)[N-]S(=O)(=O)C(F)(F)F,CCCC[N+]1(C)CCCCC1.O=S(=O)([N-]S(=O)(=O)C(F)(F)F)C(F)(F)F,1,1,19,1
303.15,0.1,0.1069,Testing,1-butyl-1-methyl-piperidinium bis(trifluoromethylsulfonyl)imide,CCCC[N+]1(CCCCC1)C.C(F)(F)(F)S(=O)(=O)[N-]S(=O)(=O)C(F)(F)F,C(CC[N+]1(C)CCCCC1)C.S(=O)(C(F)(F)F)(=O)[N-]S(=O)(C(F)(F)F)=O,1,1,19,1
303.15,0.1,0.1069,Testing,1-butyl-1-methyl-piperidinium bis(trifluoromethylsulfonyl)imide,CCCC[N+]1(CCCCC1)C.C(F)(F)(F)S(=O)(=O)[N-]S(=O)(=O)C(F)(F)F,C(C[N+]1(C)CCCCC1)CC.FC(S(=O)([N-]S(=O)(=O)C(F)(F)F)=O)(F)F,1,1,19,1
303.15,0.1,0.1069,Testing,1-butyl-1-methyl-piperidinium bis(trifluoromethylsulfonyl)imide,CCCC[N+]1(CCCCC1)C.C(F)(F)(F)S(=O)(=O)[N-]S(=O)(=O)C(F)(F)F,C(C)CC[N+]1(CCCCC1)C.C(S(=O)([N-]S(=O)(=O)C(F)(F)F)=O)(F)(F)F,1,1,19,1
303.15,0.1,0.1069,Testing,1-butyl-1-methyl-piperidinium bis(trifluoromethylsulfonyl)imide,CCCC[N+]1(CCCCC1)C.C(F)(F)(F)S(=O)(=O)[N-]S(=O)(=O)C(F)(F)F,FC(F)(S(=O)([N-]S(C(F)(F)F)(=O)=O)=O)F.[N+]1(CCCC)(C)CCCCC1,1,1,19,1
303.15,0.1,0.1069,Testing,1-butyl-1-methyl-piperidinium bis(trifluoromethylsulfonyl)imide,CCCC[N+]1(CCCCC1)C.C(F)(F)(F)S(=O)(=O)[N-]S(=O)(=O)C(F)(F)F,C(C[N+]1(CCCCC1)C)CC.S(C(F)(F)F)(=O)([N-]S(=O)(=O)C(F)(F)F)=O,1,1,19,1
303.15,0.1,0.1069,Testing,1-butyl-1-methyl-piperidinium bis(trifluoromethylsulfonyl)imide,CCCC[N+]1(CCCCC1)C.C(F)(F)(F)S(=O)(=O)[N-]S(=O)(=O)C(F)(F)F,C1C[N+](CCCC)(C)CCC1.S(C(F)(F)F)([N-]S(=O)(=O)C(F)(F)F)(=O)=O,1,1,19,1
303.15,0.1,0.1069,Testing,1-butyl-1-methyl-piperidinium bis(trifluoromethylsulfonyl)imide,CCCC[N+]1(CCCCC1)C.C(F)(F)(F)S(=O)(=O)[N-]S(=O)(=O)C(F)(F)F,C(C)CC[N+]1(C)CCCCC1.O=S(C(F)(F)F)([N-]S(C(F)(F)F)(=O)=O)=O,1,1,19,1
303.15,0.1,0.1069,Testing,1-butyl-1-methyl-piperidinium bis(trifluoromethylsulfonyl)imide,CCCC[N+]1(CCCCC1)C.C(F)(F)(F)S(=O)(=O)[N-]S(=O)(=O)C(F)(F)F,FC(F)(F)S([N-]S(=O)(C(F)(F)F)=O)(=O)=O.[N+]1(C)(CCCC)CCCCC1,1,1,19,1
303.15,0.1,0.1069,Testing,1-butyl-1-methyl-piperidinium bis(trifluoromethylsulfonyl)imide,CCCC[N+]1(CCCCC1)C.C(F)(F)(F)S(=O)(=O)[N-]S(=O)(=O)C(F)(F)F,FC(S([N-]S(C(F)(F)F)(=O)=O)(=O)=O)(F)F.[N+]1(CCCC)(C)CCCCC1,1,1,19,1
303.15,5.0,0.109,Training,1-butyl-1-methyl-piperidinium bis(trifluoromethylsulfonyl)imide,CCCC[N+]1(CCCCC1)C.C(F)(F)(F)S(=O)(=O)[N-]S(=O)(=O)C(F)(F)F,CCCC[N+]1(C)CCCCC1.O=S(=O)([N-]S(=O)(=O)C(F)(F)F)C(F)(F)F,1,50,20,1
303.15,5.0,0.109,Training,1-butyl-1-methyl-piperidinium bis(trifluoromethylsulfonyl)imide,CCCC[N+]1(CCCCC1)C.C(F)(F)(F)S(=O)(=O)[N-]S(=O)(=O)C(F)(F)F,O=S([N-]S(C(F)(F)F)(=O)=O)(C(F)(F)F)=O.[N+]1(C)(CCCC)CCCCC1,1,50,20,1
303.15,5.0,0.109,Training,1-butyl-1-methyl-piperidinium bis(trifluoromethylsulfonyl)imide,CCCC[N+]1(CCCCC1)C.C(F)(F)(F)S(=O)(=O)[N-]S(=O)(=O)C(F)(F)F,CCCC[N+]1(CCCCC1)C.FC(F)(F)S([N-]S(=O)(C(F)(F)F)=O)(=O)=O,1,50,20,1
303.15,5.0,0.109,Training,1-butyl-1-methyl-piperidinium bis(trifluoromethylsulfonyl)imide,CCCC[N+]1(CCCCC1)C.C(F)(F)(F)S(=O)(=O)[N-]S(=O)(=O)C(F)(F)F,C(C[N+]1(CCCCC1)C)CC.FC(F)(F)S([N-]S(C(F)(F)F)(=O)=O)(=O)=O,1,50,20,1
303.15,5.0,0.109,Training,1-butyl-1-methyl-piperidinium bis(trifluoromethylsulfonyl)imide,CCCC[N+]1(CCCCC1)C.C(F)(F)(F)S(=O)(=O)[N-]S(=O)(=O)C(F)(F)F,C1CCC[N+](C)(C1)CCCC.FC(S([N-]S(=O)(=O)C(F)(F)F)(=O)=O)(F)F,1,50,20,1
303.15,5.0,0.109,Training,1-butyl-1-methyl-piperidinium bis(trifluoromethylsulfonyl)imide,CCCC[N+]1(CCCCC1)C.C(F)(F)(F)S(=O)(=O)[N-]S(=O)(=O)C(F)(F)F,C(CC)C[N+]1(CCCCC1)C.FC(F)(S(=O)([N-]S(=O)(=O)C(F)(F)F)=O)F,1,50,20,1
303.15,5.0,0.109,Training,1-butyl-1-methyl-piperidinium bis(trifluoromethylsulfonyl)imide,CCCC[N+]1(CCCCC1)C.C(F)(F)(F)S(=O)(=O)[N-]S(=O)(=O)C(F)(F)F,C(C[N+]1(CCCCC1)C)CC.O=S(=O)(C(F)(F)F)[N-]S(=O)(=O)C(F)(F)F,1,50,20,1
303.15,5.0,0.109,Training,1-butyl-1-methyl-piperidinium bis(trifluoromethylsulfonyl)imide,CCCC[N+]1(CCCCC1)C.C(F)(F)(F)S(=O)(=O)[N-]S(=O)(=O)C(F)(F)F,C(F)(F)(F)S(=O)(=O)[N-]S(=O)(C(F)(F)F)=O.C1CCCC[N+]1(CCCC)C,1,50,20,1
303.15,5.0,0.109,Training,1-butyl-1-methyl-piperidinium bis(trifluoromethylsulfonyl)imide,CCCC[N+]1(CCCCC1)C.C(F)(F)(F)S(=O)(=O)[N-]S(=O)(=O)C(F)(F)F,C(F)(S([N-]S(C(F)(F)F)(=O)=O)(=O)=O)(F)F.C1CCCC[N+]1(C)CCCC,1,50,20,1
303.15,5.0,0.109,Training,1-butyl-1-methyl-piperidinium bis(trifluoromethylsulfonyl)imide,CCCC[N+]1(CCCCC1)C.C(F)(F)(F)S(=O)(=O)[N-]S(=O)(=O)C(F)(F)F,C1CCC[N+](C1)(C)CCCC.S(C(F)(F)F)(=O)([N-]S(C(F)(F)F)(=O)=O)=O,1,50,20,1
303.15,10.0,0.1112,Training,1-butyl-1-methyl-piperidinium bis(trifluoromethylsulfonyl)imide,CCCC[N+]1(CCCCC1)C.C(F)(F)(F)S(=O)(=O)[N-]S(=O)(=O)C(F)(F)F,CCCC[N+]1(C)CCCCC1.O=S(=O)([N-]S(=O)(=O)C(F)(F)F)C(F)(F)F,1,100,21,1
303.15,10.0,0.1112,Training,1-butyl-1-methyl-piperidinium bis(trifluoromethylsulfonyl)imide,CCCC[N+]1(CCCCC1)C.C(F)(F)(F)S(=O)(=O)[N-]S(=O)(=O)C(F)(F)F,C(F)(S(=O)(=O)[N-]S(C(F)(F)F)(=O)=O)(F)F.C1CC[N+](CCCC)(C)CC1,1,100,21,1
303.15,10.0,0.1112,Training,1-butyl-1-methyl-piperidinium bis(trifluoromethylsulfonyl)imide,CCCC[N+]1(CCCCC1)C.C(F)(F)(F)S(=O)(=O)[N-]S(=O)(=O)C(F)(F)F,C1CCCC[N+]1(CCCC)C.O=S(=O)(C(F)(F)F)[N-]S(=O)(C(F)(F)F)=O,1,100,21,1
303.15,10.0,0.1112,Training,1-butyl-1-methyl-piperidinium bis(trifluoromethylsulfonyl)imide,CCCC[N+]1(CCCCC1)C.C(F)(F)(F)S(=O)(=O)[N-]S(=O)(=O)C(F)(F)F,C1[N+](C)(CCCC1)CCCC.FC(F)(F)S(=O)([N-]S(=O)(=O)C(F)(F)F)=O,1,100,21,1
303.15,10.0,0.1112,Training,1-butyl-1-methyl-piperidinium bis(trifluoromethylsulfonyl)imide,CCCC[N+]1(CCCCC1)C.C(F)(F)(F)S(=O)(=O)[N-]S(=O)(=O)C(F)(F)F,C1CCC[N+](C1)(CCCC)C.FC(F)(F)S(=O)(=O)[N-]S(C(F)(F)F)(=O)=O,1,100,21,1
303.15,10.0,0.1112,Training,1-butyl-1-methyl-piperidinium bis(trifluoromethylsulfonyl)imide,CCCC[N+]1(CCCCC1)C.C(F)(F)(F)S(=O)(=O)[N-]S(=O)(=O)C(F)(F)F,C(C[N+]1(C)CCCCC1)CC.S([N-]S(=O)(=O)C(F)(F)F)(=O)(C(F)(F)F)=O,1,100,21,1
303.15,10.0,0.1112,Training,1-butyl-1-methyl-piperidinium bis(trifluoromethylsulfonyl)imide,CCCC[N+]1(CCCCC1)C.C(F)(F)(F)S(=O)(=O)[N-]S(=O)(=O)C(F)(F)F,CCCC[N+]1(CCCCC1)C.FC(F)(S(=O)([N-]S(=O)(C(F)(F)F)=O)=O)F,1,100,21,1
303.15,10.0,0.1112,Training,1-butyl-1-methyl-piperidinium bis(trifluoromethylsulfonyl)imide,CCCC[N+]1(CCCCC1)C.C(F)(F)(F)S(=O)(=O)[N-]S(=O)(=O)C(F)(F)F,C1CCCC[N+]1(C)CCCC.[N-](S(=O)(C(F)(F)F)=O)S(C(F)(F)F)(=O)=O,1,100,21,1
303.15,10.0,0.1112,Training,1-butyl-1-methyl-piperidinium bis(trifluoromethylsulfonyl)imide,CCCC[N+]1(CCCCC1)C.C(F)(F)(F)S(=O)(=O)[N-]S(=O)(=O)C(F)(F)F,C1CCCC[N+]1(C)CCCC.FC(F)(F)S([N-]S(=O)(C(F)(F)F)=O)(=O)=O,1,100,21,1
303.15,10.0,0.1112,Training,1-butyl-1-methyl-piperidinium bis(trifluoromethylsulfonyl)imide,CCCC[N+]1(CCCCC1)C.C(F)(F)(F)S(=O)(=O)[N-]S(=O)(=O)C(F)(F)F,C(F)(S(=O)([N-]S(=O)(C(F)(F)F)=O)=O)(F)F.C[N+]1(CCCC)CCCCC1,1,100,21,1
303.15,20.0,0.1142,Training,1-butyl-1-methyl-piperidinium bis(trifluoromethylsulfonyl)imide,CCCC[N+]1(CCCCC1)C.C(F)(F)(F)S(=O)(=O)[N-]S(=O)(=O)C(F)(F)F,CCCC[N+]1(C)CCCCC1.O=S(=O)([N-]S(=O)(=O)C(F)(F)F)C(F)(F)F,1,200,22,1
303.15,20.0,0.1142,Training,1-butyl-1-methyl-piperidinium bis(trifluoromethylsulfonyl)imide,CCCC[N+]1(CCCCC1)C.C(F)(F)(F)S(=O)(=O)[N-]S(=O)(=O)C(F)(F)F,C1C[N+](CCC1)(CCCC)C.FC(F)(S([N-]S(C(F)(F)F)(=O)=O)(=O)=O)F,1,200,22,1
303.15,20.0,0.1142,Training,1-butyl-1-methyl-piperidinium bis(trifluoromethylsulfonyl)imide,CCCC[N+]1(CCCCC1)C.C(F)(F)(F)S(=O)(=O)[N-]S(=O)(=O)C(F)(F)F,C1CC[N+](CC1)(C)CCCC.O=S([N-]S(C(F)(F)F)(=O)=O)(C(F)(F)F)=O,1,200,22,1
303.15,20.0,0.1142,Training,1-butyl-1-methyl-piperidinium bis(trifluoromethylsulfonyl)imide,CCCC[N+]1(CCCCC1)C.C(F)(F)(F)S(=O)(=O)[N-]S(=O)(=O)C(F)(F)F,C1[N+](CCCC)(CCCC1)C.O=S([N-]S(=O)(=O)C(F)(F)F)(=O)C(F)(F)F,1,200,22,1
303.15,20.0,0.1142,Training,1-butyl-1-methyl-piperidinium bis(trifluoromethylsulfonyl)imide,CCCC[N+]1(CCCCC1)C.C(F)(F)(F)S(=O)(=O)[N-]S(=O)(=O)C(F)(F)F,C(CC[N+]1(CCCCC1)C)C.FC(F)(F)S([N-]S(=O)(=O)C(F)(F)F)(=O)=O,1,200,22,1
303.15,20.0,0.1142,Training,1-butyl-1-methyl-piperidinium bis(trifluoromethylsulfonyl)imide,CCCC[N+]1(CCCCC1)C.C(F)(F)(F)S(=O)(=O)[N-]S(=O)(=O)C(F)(F)F,C(C[N+]1(C)CCCCC1)CC.C(F)(S([N-]S(=O)(C(F)(F)F)=O)(=O)=O)(F)F,1,200,22,1
303.15,20.0,0.1142,Training,1-butyl-1-methyl-piperidinium bis(trifluoromethylsulfonyl)imide,CCCC[N+]1(CCCCC1)C.C(F)(F)(F)S(=O)(=O)[N-]S(=O)(=O)C(F)(F)F,CCCC[N+]1(CCCCC1)C.[N-](S(=O)(=O)C(F)(F)F)S(=O)(=O)C(F)(F)F,1,200,22,1
303.15,20.0,0.1142,Training,1-butyl-1-methyl-piperidinium bis(trifluoromethylsulfonyl)imide,CCCC[N+]1(CCCCC1)C.C(F)(F)(F)S(=O)(=O)[N-]S(=O)(=O)C(F)(F)F,C1CCC[N+](C1)(C)CCCC.S(=O)(=O)([N-]S(=O)(=O)C(F)(F)F)C(F)(F)F,1,200,22,1
303.15,20.0,0.1142,Training,1-butyl-1-methyl-piperidinium bis(trifluoromethylsulfonyl)imide,CCCC[N+]1(CCCCC1)C.C(F)(F)(F)S(=O)(=O)[N-]S(=O)(=O)C(F)(F)F,C(C)CC[N+]1(CCCCC1)C.O=S(C(F)(F)F)([N-]S(=O)(=O)C(F)(F)F)=O,1,200,22,1
303.15,20.0,0.1142,Training,1-butyl-1-methyl-piperidinium bis(trifluoromethylsulfonyl)imide,CCCC[N+]1(CCCCC1)C.C(F)(F)(F)S(=O)(=O)[N-]S(=O)(=O)C(F)(F)F,C1C[N+](CCCC)(CCC1)C.FC(F)(S(=O)(=O)[N-]S(C(F)(F)F)(=O)=O)F,1,200,22,1
303.15,30.0,0.1164,Training,1-butyl-1-methyl-piperidinium bis(trifluoromethylsulfonyl)imide,CCCC[N+]1(CCCCC1)C.C(F)(F)(F)S(=O)(=O)[N-]S(=O)(=O)C(F)(F)F,CCCC[N+]1(C)CCCCC1.O=S(=O)([N-]S(=O)(=O)C(F)(F)F)C(F)(F)F,1,300,23,1
303.15,30.0,0.1164,Training,1-butyl-1-methyl-piperidinium bis(trifluoromethylsulfonyl)imide,CCCC[N+]1(CCCCC1)C.C(F)(F)(F)S(=O)(=O)[N-]S(=O)(=O)C(F)(F)F,CCCC[N+]1(C)CCCCC1.O=S(=O)(C(F)(F)F)[N-]S(C(F)(F)F)(=O)=O,1,300,23,1
303.15,30.0,0.1164,Training,1-butyl-1-methyl-piperidinium bis(trifluoromethylsulfonyl)imide,CCCC[N+]1(CCCCC1)C.C(F)(F)(F)S(=O)(=O)[N-]S(=O)(=O)C(F)(F)F,C1[N+](C)(CCCC1)CCCC.FC(F)(F)S([N-]S(C(F)(F)F)(=O)=O)(=O)=O,1,300,23,1
303.15,30.0,0.1164,Training,1-butyl-1-methyl-piperidinium bis(trifluoromethylsulfonyl)imide,CCCC[N+]1(CCCCC1)C.C(F)(F)(F)S(=O)(=O)[N-]S(=O)(=O)C(F)(F)F,C(CC)C[N+]1(CCCCC1)C.FC(F)(S(=O)([N-]S(=O)(C(F)(F)F)=O)=O)F,1,300,23,1
303.15,30.0,0.1164,Training,1-butyl-1-methyl-piperidinium bis(trifluoromethylsulfonyl)imide,CCCC[N+]1(CCCCC1)C.C(F)(F)(F)S(=O)(=O)[N-]S(=O)(=O)C(F)(F)F,C(CCC)[N+]1(CCCCC1)C.S(=O)([N-]S(C(F)(F)F)(=O)=O)(C(F)(F)F)=O,1,300,23,1
303.15,30.0,0.1164,Training,1-butyl-1-methyl-piperidinium bis(trifluoromethylsulfonyl)imide,CCCC[N+]1(CCCCC1)C.C(F)(F)(F)S(=O)(=O)[N-]S(=O)(=O)C(F)(F)F,C(C)CC[N+]1(C)CCCCC1.O=S(C(F)(F)F)([N-]S(=O)(C(F)(F)F)=O)=O,1,300,23,1
303.15,30.0,0.1164,Training,1-butyl-1-methyl-piperidinium bis(trifluoromethylsulfonyl)imide,CCCC[N+]1(CCCCC1)C.C(F)(F)(F)S(=O)(=O)[N-]S(=O)(=O)C(F)(F)F,C(CC[N+]1(C)CCCCC1)C.O=S(C(F)(F)F)(=O)[N-]S(C(F)(F)F)(=O)=O,1,300,23,1
303.15,30.0,0.1164,Training,1-butyl-1-methyl-piperidinium bis(trifluoromethylsulfonyl)imide,CCCC[N+]1(CCCCC1)C.C(F)(F)(F)S(=O)(=O)[N-]S(=O)(=O)C(F)(F)F,CCCC[N+]1(CCCCC1)C.S(C(F)(F)F)(=O)(=O)[N-]S(C(F)(F)F)(=O)=O,1,300,23,1
303.15,30.0,0.1164,Training,1-butyl-1-methyl-piperidinium bis(trifluoromethylsulfonyl)imide,CCCC[N+]1(CCCCC1)C.C(F)(F)(F)S(=O)(=O)[N-]S(=O)(=O)C(F)(F)F,C(C[N+]1(C)CCCCC1)CC.FC(S(=O)([N-]S(C(F)(F)F)(=O)=O)=O)(F)F,1,300,23,1
303.15,30.0,0.1164,Training,1-butyl-1-methyl-piperidinium bis(trifluoromethylsulfonyl)imide,CCCC[N+]1(CCCCC1)C.C(F)(F)(F)S(=O)(=O)[N-]S(=O)(=O)C(F)(F)F,C(CC)C[N+]1(C)CCCCC1.S(=O)(=O)([N-]S(=O)(=O)C(F)(F)F)C(F)(F)F,1,300,23,1
303.15,40.0,0.1172,Training,1-butyl-1-methyl-piperidinium bis(trifluoromethylsulfonyl)imide,CCCC[N+]1(CCCCC1)C.C(F)(F)(F)S(=O)(=O)[N-]S(=O)(=O)C(F)(F)F,CCCC[N+]1(C)CCCCC1.O=S(=O)([N-]S(=O)(=O)C(F)(F)F)C(F)(F)F,1,400,24,1
303.15,40.0,0.1172,Training,1-butyl-1-methyl-piperidinium bis(trifluoromethylsulfonyl)imide,CCCC[N+]1(CCCCC1)C.C(F)(F)(F)S(=O)(=O)[N-]S(=O)(=O)C(F)(F)F,FC(F)(S(=O)([N-]S(=O)(=O)C(F)(F)F)=O)F.[N+]1(C)(CCCCC1)CCCC,1,400,24,1
303.15,40.0,0.1172,Training,1-butyl-1-methyl-piperidinium bis(trifluoromethylsulfonyl)imide,CCCC[N+]1(CCCCC1)C.C(F)(F)(F)S(=O)(=O)[N-]S(=O)(=O)C(F)(F)F,C1CCCC[N+]1(C)CCCC.FC(S(=O)([N-]S(=O)(=O)C(F)(F)F)=O)(F)F,1,400,24,1
303.15,40.0,0.1172,Training,1-butyl-1-methyl-piperidinium bis(trifluoromethylsulfonyl)imide,CCCC[N+]1(CCCCC1)C.C(F)(F)(F)S(=O)(=O)[N-]S(=O)(=O)C(F)(F)F,C1CCCC[N+]1(C)CCCC.O=S([N-]S(C(F)(F)F)(=O)=O)(=O)C(F)(F)F,1,400,24,1
303.15,40.0,0.1172,Training,1-butyl-1-methyl-piperidinium bis(trifluoromethylsulfonyl)imide,CCCC[N+]1(CCCCC1)C.C(F)(F)(F)S(=O)(=O)[N-]S(=O)(=O)C(F)(F)F,C(F)(S(=O)(=O)[N-]S(=O)(C(F)(F)F)=O)(F)F.C1CCCC[N+]1(CCCC)C,1,400,24,1
303.15,40.0,0.1172,Training,1-butyl-1-methyl-piperidinium bis(trifluoromethylsulfonyl)imide,CCCC[N+]1(CCCCC1)C.C(F)(F)(F)S(=O)(=O)[N-]S(=O)(=O)C(F)(F)F,C1[N+](CCCC)(C)CCCC1.S([N-]S(=O)(=O)C(F)(F)F)(=O)(C(F)(F)F)=O,1,400,24,1
303.15,40.0,0.1172,Training,1-butyl-1-methyl-piperidinium bis(trifluoromethylsulfonyl)imide,CCCC[N+]1(CCCCC1)C.C(F)(F)(F)S(=O)(=O)[N-]S(=O)(=O)C(F)(F)F,C(C[N+]1(CCCCC1)C)CC.C(S(=O)(=O)[N-]S(C(F)(F)F)(=O)=O)(F)(F)F,1,400,24,1
303.15,40.0,0.1172,Training,1-butyl-1-methyl-piperidinium bis(trifluoromethylsulfonyl)imide,CCCC[N+]1(CCCCC1)C.C(F)(F)(F)S(=O)(=O)[N-]S(=O)(=O)C(F)(F)F,C(C[N+]1(CCCCC1)C)CC.C(F)(F)(S(=O)([N-]S(=O)(=O)C(F)(F)F)=O)F,1,400,24,1
303.15,40.0,0.1172,Training,1-butyl-1-methyl-piperidinium bis(trifluoromethylsulfonyl)imide,CCCC[N+]1(CCCCC1)C.C(F)(F)(F)S(=O)(=O)[N-]S(=O)(=O)C(F)(F)F,C1CCCC[N+]1(C)CCCC.O=S(=O)(C(F)(F)F)[N-]S(=O)(C(F)(F)F)=O,1,400,24,1
303.15,40.0,0.1172,Training,1-butyl-1-methyl-piperidinium bis(trifluoromethylsulfonyl)imide,CCCC[N+]1(CCCCC1)C.C(F)(F)(F)S(=O)(=O)[N-]S(=O)(=O)C(F)(F)F,C([N+]1(C)CCCCC1)CCC.O=S(C(F)(F)F)([N-]S(C(F)(F)F)(=O)=O)=O,1,400,24,1
303.15,50.0,0.118,Training,1-butyl-1-methyl-piperidinium bis(trifluoromethylsulfonyl)imide,CCCC[N+]1(CCCCC1)C.C(F)(F)(F)S(=O)(=O)[N-]S(=O)(=O)C(F)(F)F,CCCC[N+]1(C)CCCCC1.O=S(=O)([N-]S(=O)(=O)C(F)(F)F)C(F)(F)F,1,500,25,1
303.15,50.0,0.118,Training,1-butyl-1-methyl-piperidinium bis(trifluoromethylsulfonyl)imide,CCCC[N+]1(CCCCC1)C.C(F)(F)(F)S(=O)(=O)[N-]S(=O)(=O)C(F)(F)F,C[N+]1(CCCC)CCCCC1.FC(F)(F)S(=O)([N-]S(=O)(C(F)(F)F)=O)=O,1,500,25,1
303.15,50.0,0.118,Training,1-butyl-1-methyl-piperidinium bis(trifluoromethylsulfonyl)imide,CCCC[N+]1(CCCCC1)C.C(F)(F)(F)S(=O)(=O)[N-]S(=O)(=O)C(F)(F)F,C1C[N+](C)(CCC1)CCCC.FC(F)(S([N-]S(=O)(=O)C(F)(F)F)(=O)=O)F,1,500,25,1
303.15,50.0,0.118,Training,1-butyl-1-methyl-piperidinium bis(trifluoromethylsulfonyl)imide,CCCC[N+]1(CCCCC1)C.C(F)(F)(F)S(=O)(=O)[N-]S(=O)(=O)C(F)(F)F,C1C[N+](CCCC)(CCC1)C.[N-](S(=O)(=O)C(F)(F)F)S(=O)(C(F)(F)F)=O,1,500,25,1
303.15,50.0,0.118,Training,1-butyl-1-methyl-piperidinium bis(trifluoromethylsulfonyl)imide,CCCC[N+]1(CCCCC1)C.C(F)(F)(F)S(=O)(=O)[N-]S(=O)(=O)C(F)(F)F,CCCC[N+]1(CCCCC1)C.[N-](S(=O)(C(F)(F)F)=O)S(C(F)(F)F)(=O)=O,1,500,25,1
303.15,50.0,0.118,Training,1-butyl-1-methyl-piperidinium bis(trifluoromethylsulfonyl)imide,CCCC[N+]1(CCCCC1)C.C(F)(F)(F)S(=O)(=O)[N-]S(=O)(=O)C(F)(F)F,C1C[N+](C)(CCC1)CCCC.FC(S(=O)([N-]S(=O)(=O)C(F)(F)F)=O)(F)F,1,500,25,1
303.15,50.0,0.118,Training,1-butyl-1-methyl-piperidinium bis(trifluoromethylsulfonyl)imide,CCCC[N+]1(CCCCC1)C.C(F)(F)(F)S(=O)(=O)[N-]S(=O)(=O)C(F)(F)F,C[N+]1(CCCC)CCCCC1.FC(S(=O)(=O)[N-]S(=O)(C(F)(F)F)=O)(F)F,1,500,25,1
303.15,50.0,0.118,Training,1-butyl-1-methyl-piperidinium bis(trifluoromethylsulfonyl)imide,CCCC[N+]1(CCCCC1)C.C(F)(F)(F)S(=O)(=O)[N-]S(=O)(=O)C(F)(F)F,C[N+]1(CCCCC1)CCCC.FC(F)(F)S([N-]S(=O)(C(F)(F)F)=O)(=O)=O,1,500,25,1
303.15,50.0,0.118,Training,1-butyl-1-methyl-piperidinium bis(trifluoromethylsulfonyl)imide,CCCC[N+]1(CCCCC1)C.C(F)(F)(F)S(=O)(=O)[N-]S(=O)(=O)C(F)(F)F,C1CC[N+](CCCC)(C)CC1.FC(F)(F)S(=O)(=O)[N-]S(=O)(=O)C(F)(F)F,1,500,25,1
303.15,50.0,0.118,Training,1-butyl-1-methyl-piperidinium bis(trifluoromethylsulfonyl)imide,CCCC[N+]1(CCCCC1)C.C(F)(F)(F)S(=O)(=O)[N-]S(=O)(=O)C(F)(F)F,S(=O)([N-]S(=O)(C(F)(F)F)=O)(C(F)(F)F)=O.[N+]1(CCCC)(CCCCC1)C,1,500,25,1
303.15,60.0,0.12,Training,1-butyl-1-methyl-piperidinium bis(trifluoromethylsulfonyl)imide,CCCC[N+]1(CCCCC1)C.C(F)(F)(F)S(=O)(=O)[N-]S(=O)(=O)C(F)(F)F,CCCC[N+]1(C)CCCCC1.O=S(=O)([N-]S(=O)(=O)C(F)(F)F)C(F)(F)F,1,600,26,1
303.15,60.0,0.12,Training,1-butyl-1-methyl-piperidinium bis(trifluoromethylsulfonyl)imide,CCCC[N+]1(CCCCC1)C.C(F)(F)(F)S(=O)(=O)[N-]S(=O)(=O)C(F)(F)F,CCCC[N+]1(CCCCC1)C.O=S(=O)(C(F)(F)F)[N-]S(C(F)(F)F)(=O)=O,1,600,26,1
303.15,60.0,0.12,Training,1-butyl-1-methyl-piperidinium bis(trifluoromethylsulfonyl)imide,CCCC[N+]1(CCCCC1)C.C(F)(F)(F)S(=O)(=O)[N-]S(=O)(=O)C(F)(F)F,C1CCC[N+](CCCC)(C)C1.FC(S(=O)([N-]S(=O)(=O)C(F)(F)F)=O)(F)F,1,600,26,1
303.15,60.0,0.12,Training,1-butyl-1-methyl-piperidinium bis(trifluoromethylsulfonyl)imide,CCCC[N+]1(CCCCC1)C.C(F)(F)(F)S(=O)(=O)[N-]S(=O)(=O)C(F)(F)F,C(C[N+]1(C)CCCCC1)CC.S([N-]S(=O)(=O)C(F)(F)F)(C(F)(F)F)(=O)=O,1,600,26,1
303.15,60.0,0.12,Training,1-butyl-1-methyl-piperidinium bis(trifluoromethylsulfonyl)imide,CCCC[N+]1(CCCCC1)C.C(F)(F)(F)S(=O)(=O)[N-]S(=O)(=O)C(F)(F)F,C1CCC[N+](C)(C1)CCCC.O=S(=O)([N-]S(C(F)(F)F)(=O)=O)C(F)(F)F,1,600,26,1
303.15,60.0,0.12,Training,1-butyl-1-methyl-piperidinium bis(trifluoromethylsulfonyl)imide,CCCC[N+]1(CCCCC1)C.C(F)(F)(F)S(=O)(=O)[N-]S(=O)(=O)C(F)(F)F,C1C[N+](C)(CCCC)CCC1.FC(S(=O)([N-]S(=O)(C(F)(F)F)=O)=O)(F)F,1,600,26,1
303.15,60.0,0.12,Training,1-butyl-1-methyl-piperidinium bis(trifluoromethylsulfonyl)imide,CCCC[N+]1(CCCCC1)C.C(F)(F)(F)S(=O)(=O)[N-]S(=O)(=O)C(F)(F)F,C1CCCC[N+]1(C)CCCC.FC(F)(F)S([N-]S(=O)(=O)C(F)(F)F)(=O)=O,1,600,26,1
303.15,60.0,0.12,Training,1-butyl-1-methyl-piperidinium bis(trifluoromethylsulfonyl)imide,CCCC[N+]1(CCCCC1)C.C(F)(F)(F)S(=O)(=O)[N-]S(=O)(=O)C(F)(F)F,C1CC[N+](CC1)(C)CCCC.O=S([N-]S(C(F)(F)F)(=O)=O)(C(F)(F)F)=O,1,600,26,1
303.15,60.0,0.12,Training,1-butyl-1-methyl-piperidinium bis(trifluoromethylsulfonyl)imide,CCCC[N+]1(CCCCC1)C.C(F)(F)(F)S(=O)(=O)[N-]S(=O)(=O)C(F)(F)F,C1CCCC[N+]1(CCCC)C.S(=O)(C(F)(F)F)(=O)[N-]S(=O)(=O)C(F)(F)F,1,600,26,1
303.15,60.0,0.12,Training,1-butyl-1-methyl-piperidinium bis(trifluoromethylsulfonyl)imide,CCCC[N+]1(CCCCC1)C.C(F)(F)(F)S(=O)(=O)[N-]S(=O)(=O)C(F)(F)F,S(=O)(C(F)(F)F)(=O)[N-]S(C(F)(F)F)(=O)=O.[N+]1(CCCCC1)(CCCC)C,1,600,26,1
303.15,65.0,0.1206,Training,1-butyl-1-methyl-piperidinium bis(trifluoromethylsulfonyl)imide,CCCC[N+]1(CCCCC1)C.C(F)(F)(F)S(=O)(=O)[N-]S(=O)(=O)C(F)(F)F,CCCC[N+]1(C)CCCCC1.O=S(=O)([N-]S(=O)(=O)C(F)(F)F)C(F)(F)F,1,650,27,1
303.15,65.0,0.1206,Training,1-butyl-1-methyl-piperidinium bis(trifluoromethylsulfonyl)imide,CCCC[N+]1(CCCCC1)C.C(F)(F)(F)S(=O)(=O)[N-]S(=O)(=O)C(F)(F)F,C1[N+](CCCC1)(C)CCCC.FC(F)(F)S(=O)(=O)[N-]S(C(F)(F)F)(=O)=O,1,650,27,1
303.15,65.0,0.1206,Training,1-butyl-1-methyl-piperidinium bis(trifluoromethylsulfonyl)imide,CCCC[N+]1(CCCCC1)C.C(F)(F)(F)S(=O)(=O)[N-]S(=O)(=O)C(F)(F)F,C1C[N+](C)(CCC1)CCCC.O=S([N-]S(C(F)(F)F)(=O)=O)(=O)C(F)(F)F,1,650,27,1
303.15,65.0,0.1206,Training,1-butyl-1-methyl-piperidinium bis(trifluoromethylsulfonyl)imide,CCCC[N+]1(CCCCC1)C.C(F)(F)(F)S(=O)(=O)[N-]S(=O)(=O)C(F)(F)F,C1CCCC[N+]1(C)CCCC.FC(F)(F)S(=O)(=O)[N-]S(=O)(=O)C(F)(F)F,1,650,27,1
303.15,65.0,0.1206,Training,1-butyl-1-methyl-piperidinium bis(trifluoromethylsulfonyl)imide,CCCC[N+]1(CCCCC1)C.C(F)(F)(F)S(=O)(=O)[N-]S(=O)(=O)C(F)(F)F,C(S(=O)([N-]S(=O)(C(F)(F)F)=O)=O)(F)(F)F.C1C[N+](CCC1)(CCCC)C,1,650,27,1
303.15,65.0,0.1206,Training,1-butyl-1-methyl-piperidinium bis(trifluoromethylsulfonyl)imide,CCCC[N+]1(CCCCC1)C.C(F)(F)(F)S(=O)(=O)[N-]S(=O)(=O)C(F)(F)F,C([N+]1(CCCCC1)C)CCC.O=S(=O)(C(F)(F)F)[N-]S(C(F)(F)F)(=O)=O,1,650,27,1
303.15,65.0,0.1206,Training,1-butyl-1-methyl-piperidinium bis(trifluoromethylsulfonyl)imide,CCCC[N+]1(CCCCC1)C.C(F)(F)(F)S(=O)(=O)[N-]S(=O)(=O)C(F)(F)F,C1CCCC[N+]1(CCCC)C.FC(F)(F)S(=O)([N-]S(=O)(C(F)(F)F)=O)=O,1,650,27,1