T/K,P/MPa,TC/W m-1 K-1,Data type,Name,SMILES,Normalized SMILES,index,P/bar,RANDOM,IL
313.0,0.1,0.118,Training,1-butyl-1-methyl-pyrrolidinium bis(trifluoromethylsulfonyl)imide,CCCC[N+]1(CCCC1)C.C(F)(F)(F)S(=O)(=O)[N-]S(=O)(=O)C(F)(F)F,C1CC[N+](C)(CCCC)C1.S(=O)(=O)(C(F)(F)F)[N-]S(=O)(=O)C(F)(F)F,2,1,439,2
313.0,0.1,0.118,Training,1-butyl-1-methyl-pyrrolidinium bis(trifluoromethylsulfonyl)imide,CCCC[N+]1(CCCC1)C.C(F)(F)(F)S(=O)(=O)[N-]S(=O)(=O)C(F)(F)F,C(CCC)[N+]1(C)CCCC1.S(=O)(C(F)(F)F)([N-]S(=O)(=O)C(F)(F)F)=O,2,1,439,2
313.0,0.1,0.118,Training,1-butyl-1-methyl-pyrrolidinium bis(trifluoromethylsulfonyl)imide,CCCC[N+]1(CCCC1)C.C(F)(F)(F)S(=O)(=O)[N-]S(=O)(=O)C(F)(F)F,C[N+]1(CCCC)CCCC1.O=S([N-]S(C(F)(F)F)(=O)=O)(C(F)(F)F)=O,2,1,439,2
313.0,0.1,0.118,Training,1-butyl-1-methyl-pyrrolidinium bis(trifluoromethylsulfonyl)imide,CCCC[N+]1(CCCC1)C.C(F)(F)(F)S(=O)(=O)[N-]S(=O)(=O)C(F)(F)F,C1C[N+](CC1)(C)CCCC.FC(F)(S([N-]S(=O)(C(F)(F)F)=O)(=O)=O)F,2,1,439,2
313.0,0.1,0.118,Training,1-butyl-1-methyl-pyrrolidinium bis(trifluoromethylsulfonyl)imide,CCCC[N+]1(CCCC1)C.C(F)(F)(F)S(=O)(=O)[N-]S(=O)(=O)C(F)(F)F,C[N+]1(CCCC)CCCC1.FC(F)(S(=O)(=O)[N-]S(=O)(=O)C(F)(F)F)F,2,1,439,2
313.0,0.1,0.118,Training,1-butyl-1-methyl-pyrrolidinium bis(trifluoromethylsulfonyl)imide,CCCC[N+]1(CCCC1)C.C(F)(F)(F)S(=O)(=O)[N-]S(=O)(=O)C(F)(F)F,C1CCC[N+]1(C)CCCC.FC(F)(F)S(=O)([N-]S(=O)(=O)C(F)(F)F)=O,2,1,439,2
313.0,0.1,0.118,Training,1-butyl-1-methyl-pyrrolidinium bis(trifluoromethylsulfonyl)imide,CCCC[N+]1(CCCC1)C.C(F)(F)(F)S(=O)(=O)[N-]S(=O)(=O)C(F)(F)F,C(F)(F)(F)S(=O)(=O)[N-]S(=O)(=O)C(F)(F)F.C([N+]1(C)CCCC1)CCC,2,1,439,2
313.0,0.1,0.118,Training,1-butyl-1-methyl-pyrrolidinium bis(trifluoromethylsulfonyl)imide,CCCC[N+]1(CCCC1)C.C(F)(F)(F)S(=O)(=O)[N-]S(=O)(=O)C(F)(F)F,FC(F)(S(=O)(=O)[N-]S(=O)(=O)C(F)(F)F)F.[N+]1(CCCC)(CCCC1)C,2,1,439,2
313.0,0.1,0.118,Training,1-butyl-1-methyl-pyrrolidinium bis(trifluoromethylsulfonyl)imide,CCCC[N+]1(CCCC1)C.C(F)(F)(F)S(=O)(=O)[N-]S(=O)(=O)C(F)(F)F,C[N+]1(CCCC1)CCCC.O=S(C(F)(F)F)([N-]S(=O)(C(F)(F)F)=O)=O,2,1,439,2
323.0,0.1,0.117,Training,1-butyl-1-methyl-pyrrolidinium bis(trifluoromethylsulfonyl)imide,CCCC[N+]1(CCCC1)C.C(F)(F)(F)S(=O)(=O)[N-]S(=O)(=O)C(F)(F)F,CCCC[N+]1(C)CCCC1.O=S(=O)([N-]S(=O)(=O)C(F)(F)F)C(F)(F)F,2,1,440,2
323.0,0.1,0.117,Training,1-butyl-1-methyl-pyrrolidinium bis(trifluoromethylsulfonyl)imide,CCCC[N+]1(CCCC1)C.C(F)(F)(F)S(=O)(=O)[N-]S(=O)(=O)C(F)(F)F,C[N+]1(CCCC)CCCC1.FC(F)(S(=O)(=O)[N-]S(=O)(=O)C(F)(F)F)F,2,1,440,2
323.0,0.1,0.117,Training,1-butyl-1-methyl-pyrrolidinium bis(trifluoromethylsulfonyl)imide,CCCC[N+]1(CCCC1)C.C(F)(F)(F)S(=O)(=O)[N-]S(=O)(=O)C(F)(F)F,C1CC[N+](C1)(C)CCCC.FC(F)(F)S(=O)(=O)[N-]S(=O)(=O)C(F)(F)F,2,1,440,2
323.0,0.1,0.117,Training,1-butyl-1-methyl-pyrrolidinium bis(trifluoromethylsulfonyl)imide,CCCC[N+]1(CCCC1)C.C(F)(F)(F)S(=O)(=O)[N-]S(=O)(=O)C(F)(F)F,O=S(C(F)(F)F)(=O)[N-]S(C(F)(F)F)(=O)=O.[N+]1(CCCC)(C)CCCC1,2,1,440,2
323.0,0.1,0.117,Training,1-butyl-1-methyl-pyrrolidinium bis(trifluoromethylsulfonyl)imide,CCCC[N+]1(CCCC1)C.C(F)(F)(F)S(=O)(=O)[N-]S(=O)(=O)C(F)(F)F,C(C[N+]1(CCCC1)C)CC.[N-](S(=O)(C(F)(F)F)=O)S(C(F)(F)F)(=O)=O,2,1,440,2
323.0,0.1,0.117,Training,1-butyl-1-methyl-pyrrolidinium bis(trifluoromethylsulfonyl)imide,CCCC[N+]1(CCCC1)C.C(F)(F)(F)S(=O)(=O)[N-]S(=O)(=O)C(F)(F)F,C(CC[N+]1(CCCC1)C)C.FC(F)(S(=O)(=O)[N-]S(=O)(=O)C(F)(F)F)F,2,1,440,2
323.0,0.1,0.117,Training,1-butyl-1-methyl-pyrrolidinium bis(trifluoromethylsulfonyl)imide,CCCC[N+]1(CCCC1)C.C(F)(F)(F)S(=O)(=O)[N-]S(=O)(=O)C(F)(F)F,C(CC)C[N+]1(C)CCCC1.FC(F)(F)S([N-]S(C(F)(F)F)(=O)=O)(=O)=O,2,1,440,2
323.0,0.1,0.117,Training,1-butyl-1-methyl-pyrrolidinium bis(trifluoromethylsulfonyl)imide,CCCC[N+]1(CCCC1)C.C(F)(F)(F)S(=O)(=O)[N-]S(=O)(=O)C(F)(F)F,C[N+]1(CCCC)CCCC1.O=S(=O)(C(F)(F)F)[N-]S(=O)(=O)C(F)(F)F,2,1,440,2
323.0,0.1,0.117,Training,1-butyl-1-methyl-pyrrolidinium bis(trifluoromethylsulfonyl)imide,CCCC[N+]1(CCCC1)C.C(F)(F)(F)S(=O)(=O)[N-]S(=O)(=O)C(F)(F)F,CCCC[N+]1(CCCC1)C.FC(F)(S(=O)([N-]S(C(F)(F)F)(=O)=O)=O)F,2,1,440,2
323.0,0.1,0.117,Training,1-butyl-1-methyl-pyrrolidinium bis(trifluoromethylsulfonyl)imide,CCCC[N+]1(CCCC1)C.C(F)(F)(F)S(=O)(=O)[N-]S(=O)(=O)C(F)(F)F,C1CC[N+](C1)(C)CCCC.FC(F)(F)S(=O)([N-]S(=O)(C(F)(F)F)=O)=O,2,1,440,2
333.0,0.1,0.117,Training,1-butyl-1-methyl-pyrrolidinium bis(trifluoromethylsulfonyl)imide,CCCC[N+]1(CCCC1)C.C(F)(F)(F)S(=O)(=O)[N-]S(=O)(=O)C(F)(F)F,CCCC[N+]1(C)CCCC1.O=S(=O)([N-]S(=O)(=O)C(F)(F)F)C(F)(F)F,2,1,441,2
333.0,0.1,0.117,Training,1-butyl-1-methyl-pyrrolidinium bis(trifluoromethylsulfonyl)imide,CCCC[N+]1(CCCC1)C.C(F)(F)(F)S(=O)(=O)[N-]S(=O)(=O)C(F)(F)F,C1CCC[N+]1(C)CCCC.FC(F)(S(=O)(=O)[N-]S(=O)(=O)C(F)(F)F)F,2,1,441,2
333.0,0.1,0.117,Training,1-butyl-1-methyl-pyrrolidinium bis(trifluoromethylsulfonyl)imide,CCCC[N+]1(CCCC1)C.C(F)(F)(F)S(=O)(=O)[N-]S(=O)(=O)C(F)(F)F,CCCC[N+]1(CCCC1)C.FC(F)(S(=O)(=O)[N-]S(C(F)(F)F)(=O)=O)F,2,1,441,2
333.0,0.1,0.117,Training,1-butyl-1-methyl-pyrrolidinium bis(trifluoromethylsulfonyl)imide,CCCC[N+]1(CCCC1)C.C(F)(F)(F)S(=O)(=O)[N-]S(=O)(=O)C(F)(F)F,C1C[N+](CC1)(C)CCCC.FC(S(=O)(=O)[N-]S(C(F)(F)F)(=O)=O)(F)F,2,1,441,2
333.0,0.1,0.117,Training,1-butyl-1-methyl-pyrrolidinium bis(trifluoromethylsulfonyl)imide,CCCC[N+]1(CCCC1)C.C(F)(F)(F)S(=O)(=O)[N-]S(=O)(=O)C(F)(F)F,C[N+]1(CCCC)CCCC1.O=S([N-]S(=O)(=O)C(F)(F)F)(=O)C(F)(F)F,2,1,441,2
333.0,0.1,0.117,Training,1-butyl-1-methyl-pyrrolidinium bis(trifluoromethylsulfonyl)imide,CCCC[N+]1(CCCC1)C.C(F)(F)(F)S(=O)(=O)[N-]S(=O)(=O)C(F)(F)F,C1CC[N+](C)(C1)CCCC.FC(F)(S([N-]S(C(F)(F)F)(=O)=O)(=O)=O)F,2,1,441,2
333.0,0.1,0.117,Training,1-butyl-1-methyl-pyrrolidinium bis(trifluoromethylsulfonyl)imide,CCCC[N+]1(CCCC1)C.C(F)(F)(F)S(=O)(=O)[N-]S(=O)(=O)C(F)(F)F,C1[N+](C)(CCCC)CCC1.FC(F)(S(=O)([N-]S(C(F)(F)F)(=O)=O)=O)F,2,1,441,2
333.0,0.1,0.117,Training,1-butyl-1-methyl-pyrrolidinium bis(trifluoromethylsulfonyl)imide,CCCC[N+]1(CCCC1)C.C(F)(F)(F)S(=O)(=O)[N-]S(=O)(=O)C(F)(F)F,C1CC[N+](C1)(CCCC)C.O=S([N-]S(=O)(C(F)(F)F)=O)(C(F)(F)F)=O,2,1,441,2
333.0,0.1,0.117,Training,1-butyl-1-methyl-pyrrolidinium bis(trifluoromethylsulfonyl)imide,CCCC[N+]1(CCCC1)C.C(F)(F)(F)S(=O)(=O)[N-]S(=O)(=O)C(F)(F)F,C[N+]1(CCCC)CCCC1.FC(F)(S(=O)([N-]S(C(F)(F)F)(=O)=O)=O)F,2,1,441,2
333.0,0.1,0.117,Training,1-butyl-1-methyl-pyrrolidinium bis(trifluoromethylsulfonyl)imide,CCCC[N+]1(CCCC1)C.C(F)(F)(F)S(=O)(=O)[N-]S(=O)(=O)C(F)(F)F,C1CC[N+](CCCC)(C1)C.FC(F)(S([N-]S(C(F)(F)F)(=O)=O)(=O)=O)F,2,1,441,2
293.0,0.1,0.145,Training,1-butyl-3-methylimidazolium hexafluorophosphate,CCCCN1C=C[N+](=C1)C.F[P-](F)(F)(F)(F)F,CCCCn1cc[n+](C)c1.F[P-](F)(F)(F)(F)F,33,1,442,33
293.0,0.1,0.145,Training,1-butyl-3-methylimidazolium hexafluorophosphate,CCCCN1C=C[N+](=C1)C.F[P-](F)(F)(F)(F)F,C(CCC)n1c[n+](cc1)C.[P-](F)(F)(F)(F)(F)F,33,1,442,33
293.0,0.1,0.145,Training,1-butyl-3-methylimidazolium hexafluorophosphate,CCCCN1C=C[N+](=C1)C.F[P-](F)(F)(F)(F)F,C(CC)Cn1cc[n+](C)c1.F[P-](F)(F)(F)(F)F,33,1,442,33
293.0,0.1,0.145,Training,1-butyl-3-methylimidazolium hexafluorophosphate,CCCCN1C=C[N+](=C1)C.F[P-](F)(F)(F)(F)F,F[P-](F)(F)(F)(F)F.c1n(cc[n+]1C)CCCC,33,1,442,33
293.0,0.1,0.145,Training,1-butyl-3-methylimidazolium hexafluorophosphate,CCCCN1C=C[N+](=C1)C.F[P-](F)(F)(F)(F)F,F[P-](F)(F)(F)(F)F.c1[n+](C)cn(c1)CCCC,33,1,442,33
293.0,0.1,0.145,Training,1-butyl-3-methylimidazolium hexafluorophosphate,CCCCN1C=C[N+](=C1)C.F[P-](F)(F)(F)(F)F,F[P-](F)(F)(F)(F)F.[n+]1(cn(cc1)CCCC)C,33,1,442,33
293.0,0.1,0.145,Training,1-butyl-3-methylimidazolium hexafluorophosphate,CCCCN1C=C[N+](=C1)C.F[P-](F)(F)(F)(F)F,C(C)CCn1cc[n+](c1)C.F[P-](F)(F)(F)(F)F,33,1,442,33
293.0,0.1,0.145,Training,1-butyl-3-methylimidazolium hexafluorophosphate,CCCCN1C=C[N+](=C1)C.F[P-](F)(F)(F)(F)F,F[P-](F)(F)(F)(F)F.n1(CCCC)cc[n+](c1)C,33,1,442,33
303.0,0.1,0.145,Training,1-butyl-3-methylimidazolium hexafluorophosphate,CCCCN1C=C[N+](=C1)C.F[P-](F)(F)(F)(F)F,CCCCn1cc[n+](C)c1.F[P-](F)(F)(F)(F)F,33,1,443,33
303.0,0.1,0.145,Training,1-butyl-3-methylimidazolium hexafluorophosphate,CCCCN1C=C[N+](=C1)C.F[P-](F)(F)(F)(F)F,[P-](F)(F)(F)(F)(F)F.c1n(c[n+](C)c1)CCCC,33,1,443,33
303.0,0.1,0.145,Training,1-butyl-3-methylimidazolium hexafluorophosphate,CCCCN1C=C[N+](=C1)C.F[P-](F)(F)(F)(F)F,F[P-](F)(F)(F)(F)F.c1[n+](C)cn(CCCC)c1,33,1,443,33
303.0,0.1,0.145,Training,1-butyl-3-methylimidazolium hexafluorophosphate,CCCCN1C=C[N+](=C1)C.F[P-](F)(F)(F)(F)F,F[P-](F)(F)(F)(F)F.c1[n+](cn(c1)CCCC)C,33,1,443,33
303.0,0.1,0.145,Training,1-butyl-3-methylimidazolium hexafluorophosphate,CCCCN1C=C[N+](=C1)C.F[P-](F)(F)(F)(F)F,F[P-](F)(F)(F)(F)F.c1cn(CCCC)c[n+]1C,33,1,443,33
303.0,0.1,0.145,Training,1-butyl-3-methylimidazolium hexafluorophosphate,CCCCN1C=C[N+](=C1)C.F[P-](F)(F)(F)(F)F,F[P-](F)(F)(F)(F)F.n1(cc[n+](c1)C)CCCC,33,1,443,33
303.0,0.1,0.145,Training,1-butyl-3-methylimidazolium hexafluorophosphate,CCCCN1C=C[N+](=C1)C.F[P-](F)(F)(F)(F)F,C[n+]1cn(cc1)CCCC.F[P-](F)(F)(F)(F)F,33,1,443,33
303.0,0.1,0.145,Training,1-butyl-3-methylimidazolium hexafluorophosphate,CCCCN1C=C[N+](=C1)C.F[P-](F)(F)(F)(F)F,[P-](F)(F)(F)(F)(F)F.[n+]1(C)cn(cc1)CCCC,33,1,443,33
303.0,0.1,0.145,Training,1-butyl-3-methylimidazolium hexafluorophosphate,CCCCN1C=C[N+](=C1)C.F[P-](F)(F)(F)(F)F,F[P-](F)(F)(F)(F)F.[n+]1(C)cn(cc1)CCCC,33,1,443,33
303.0,0.1,0.145,Training,1-butyl-3-methylimidazolium hexafluorophosphate,CCCCN1C=C[N+](=C1)C.F[P-](F)(F)(F)(F)F,F[P-](F)(F)(F)(F)F.c1c[n+](C)cn1CCCC,33,1,443,33
313.0,0.1,0.145,Training,1-butyl-3-methylimidazolium hexafluorophosphate,CCCCN1C=C[N+](=C1)C.F[P-](F)(F)(F)(F)F,CCCCn1cc[n+](C)c1.F[P-](F)(F)(F)(F)F,33,1,444,33
313.0,0.1,0.145,Training,1-butyl-3-methylimidazolium hexafluorophosphate,CCCCN1C=C[N+](=C1)C.F[P-](F)(F)(F)(F)F,F[P-](F)(F)(F)(F)F.n1(CCCC)c[n+](C)cc1,33,1,444,33
313.0,0.1,0.145,Training,1-butyl-3-methylimidazolium hexafluorophosphate,CCCCN1C=C[N+](=C1)C.F[P-](F)(F)(F)(F)F,C(Cn1c[n+](cc1)C)CC.F[P-](F)(F)(F)(F)F,33,1,444,33
313.0,0.1,0.145,Training,1-butyl-3-methylimidazolium hexafluorophosphate,CCCCN1C=C[N+](=C1)C.F[P-](F)(F)(F)(F)F,[P-](F)(F)(F)(F)(F)F.c1cn(CCCC)c[n+]1C,33,1,444,33
313.0,0.1,0.145,Training,1-butyl-3-methylimidazolium hexafluorophosphate,CCCCN1C=C[N+](=C1)C.F[P-](F)(F)(F)(F)F,C(C)CCn1c[n+](cc1)C.F[P-](F)(F)(F)(F)F,33,1,444,33
313.0,0.1,0.145,Training,1-butyl-3-methylimidazolium hexafluorophosphate,CCCCN1C=C[N+](=C1)C.F[P-](F)(F)(F)(F)F,CCCCn1c[n+](cc1)C.F[P-](F)(F)(F)(F)F,33,1,444,33
313.0,0.1,0.145,Training,1-butyl-3-methylimidazolium hexafluorophosphate,CCCCN1C=C[N+](=C1)C.F[P-](F)(F)(F)(F)F,CCCCn1cc[n+](c1)C.F[P-](F)(F)(F)(F)F,33,1,444,33
313.0,0.1,0.145,Training,1-butyl-3-methylimidazolium hexafluorophosphate,CCCCN1C=C[N+](=C1)C.F[P-](F)(F)(F)(F)F,F[P-](F)(F)(F)(F)F.n1(cc[n+](c1)C)CCCC,33,1,444,33
313.0,0.1,0.145,Training,1-butyl-3-methylimidazolium hexafluorophosphate,CCCCN1C=C[N+](=C1)C.F[P-](F)(F)(F)(F)F,C[n+]1cn(cc1)CCCC.F[P-](F)(F)(F)(F)F,33,1,444,33
323.0,0.1,0.144,Training,1-butyl-3-methylimidazolium hexafluorophosphate,CCCCN1C=C[N+](=C1)C.F[P-](F)(F)(F)(F)F,CCCCn1cc[n+](C)c1.F[P-](F)(F)(F)(F)F,33,1,445,33
323.0,0.1,0.144,Training,1-butyl-3-methylimidazolium hexafluorophosphate,CCCCN1C=C[N+](=C1)C.F[P-](F)(F)(F)(F)F,F[P-](F)(F)(F)(F)F.n1(cc[n+](c1)C)CCCC,33,1,445,33
323.0,0.1,0.144,Training,1-butyl-3-methylimidazolium hexafluorophosphate,CCCCN1C=C[N+](=C1)C.F[P-](F)(F)(F)(F)F,F[P-](F)(F)(F)(F)F.c1[n+](cn(c1)CCCC)C,33,1,445,33
323.0,0.1,0.144,Training,1-butyl-3-methylimidazolium hexafluorophosphate,CCCCN1C=C[N+](=C1)C.F[P-](F)(F)(F)(F)F,CCCCn1c[n+](cc1)C.[P-](F)(F)(F)(F)(F)F,33,1,445,33
323.0,0.1,0.144,Training,1-butyl-3-methylimidazolium hexafluorophosphate,CCCCN1C=C[N+](=C1)C.F[P-](F)(F)(F)(F)F,F[P-](F)(F)(F)(F)F.c1n(c[n+](c1)C)CCCC,33,1,445,33
323.0,0.1,0.144,Training,1-butyl-3-methylimidazolium hexafluorophosphate,CCCCN1C=C[N+](=C1)C.F[P-](F)(F)(F)(F)F,C(CC)Cn1c[n+](cc1)C.F[P-](F)(F)(F)(F)F,33,1,445,33
323.0,0.1,0.144,Training,1-butyl-3-methylimidazolium hexafluorophosphate,CCCCN1C=C[N+](=C1)C.F[P-](F)(F)(F)(F)F,C(C)CCn1cc[n+](c1)C.F[P-](F)(F)(F)(F)F,33,1,445,33
323.0,0.1,0.144,Training,1-butyl-3-methylimidazolium hexafluorophosphate,CCCCN1C=C[N+](=C1)C.F[P-](F)(F)(F)(F)F,C[n+]1cn(cc1)CCCC.F[P-](F)(F)(F)(F)F,33,1,445,33
323.0,0.1,0.144,Training,1-butyl-3-methylimidazolium hexafluorophosphate,CCCCN1C=C[N+](=C1)C.F[P-](F)(F)(F)(F)F,[P-](F)(F)(F)(F)(F)F.[n+]1(ccn(c1)CCCC)C,33,1,445,33
323.0,0.1,0.144,Training,1-butyl-3-methylimidazolium hexafluorophosphate,CCCCN1C=C[N+](=C1)C.F[P-](F)(F)(F)(F)F,F[P-](F)(F)(F)(F)F.[n+]1(ccn(c1)CCCC)C,33,1,445,33
333.0,0.1,0.143,Testing,1-butyl-3-methylimidazolium hexafluorophosphate,CCCCN1C=C[N+](=C1)C.F[P-](F)(F)(F)(F)F,CCCCn1cc[n+](C)c1.F[P-](F)(F)(F)(F)F,33,1,446,33
333.0,0.1,0.143,Testing,1-butyl-3-methylimidazolium hexafluorophosphate,CCCCN1C=C[N+](=C1)C.F[P-](F)(F)(F)(F)F,F[P-](F)(F)(F)(F)F.c1[n+](C)ccn1CCCC,33,1,446,33
333.0,0.1,0.143,Testing,1-butyl-3-methylimidazolium hexafluorophosphate,CCCCN1C=C[N+](=C1)C.F[P-](F)(F)(F)(F)F,F[P-](F)(F)(F)(F)F.[n+]1(C)ccn(c1)CCCC,33,1,446,33
333.0,0.1,0.143,Testing,1-butyl-3-methylimidazolium hexafluorophosphate,CCCCN1C=C[N+](=C1)C.F[P-](F)(F)(F)(F)F,C(C)CCn1cc[n+](C)c1.F[P-](F)(F)(F)(F)F,33,1,446,33
333.0,0.1,0.143,Testing,1-butyl-3-methylimidazolium hexafluorophosphate,CCCCN1C=C[N+](=C1)C.F[P-](F)(F)(F)(F)F,C[n+]1cn(cc1)CCCC.F[P-](F)(F)(F)(F)F,33,1,446,33
333.0,0.1,0.143,Testing,1-butyl-3-methylimidazolium hexafluorophosphate,CCCCN1C=C[N+](=C1)C.F[P-](F)(F)(F)(F)F,[P-](F)(F)(F)(F)(F)F.c1n(cc[n+]1C)CCCC,33,1,446,33
333.0,0.1,0.143,Testing,1-butyl-3-methylimidazolium hexafluorophosphate,CCCCN1C=C[N+](=C1)C.F[P-](F)(F)(F)(F)F,C(C)CCn1c[n+](cc1)C.F[P-](F)(F)(F)(F)F,33,1,446,33
333.0,0.1,0.143,Testing,1-butyl-3-methylimidazolium hexafluorophosphate,CCCCN1C=C[N+](=C1)C.F[P-](F)(F)(F)(F)F,F[P-](F)(F)(F)(F)F.c1n(c[n+](C)c1)CCCC,33,1,446,33
333.0,0.1,0.143,Testing,1-butyl-3-methylimidazolium hexafluorophosphate,CCCCN1C=C[N+](=C1)C.F[P-](F)(F)(F)(F)F,F[P-](F)(F)(F)(F)F.c1cn(CCCC)c[n+]1C,33,1,446,33
343.0,0.1,0.143,Training,1-butyl-3-methylimidazolium hexafluorophosphate,CCCCN1C=C[N+](=C1)C.F[P-](F)(F)(F)(F)F,CCCCn1cc[n+](C)c1.F[P-](F)(F)(F)(F)F,33,1,447,33
343.0,0.1,0.143,Training,1-butyl-3-methylimidazolium hexafluorophosphate,CCCCN1C=C[N+](=C1)C.F[P-](F)(F)(F)(F)F,C(CCC)n1cc[n+](C)c1.F[P-](F)(F)(F)(F)F,33,1,447,33
343.0,0.1,0.143,Training,1-butyl-3-methylimidazolium hexafluorophosphate,CCCCN1C=C[N+](=C1)C.F[P-](F)(F)(F)(F)F,C[n+]1ccn(CCCC)c1.F[P-](F)(F)(F)(F)F,33,1,447,33
343.0,0.1,0.143,Training,1-butyl-3-methylimidazolium hexafluorophosphate,CCCCN1C=C[N+](=C1)C.F[P-](F)(F)(F)(F)F,F[P-](F)(F)(F)(F)F.n1(cc[n+](c1)C)CCCC,33,1,447,33
343.0,0.1,0.143,Training,1-butyl-3-methylimidazolium hexafluorophosphate,CCCCN1C=C[N+](=C1)C.F[P-](F)(F)(F)(F)F,C(CC)Cn1cc[n+](c1)C.[P-](F)(F)(F)(F)(F)F,33,1,447,33
343.0,0.1,0.143,Training,1-butyl-3-methylimidazolium hexafluorophosphate,CCCCN1C=C[N+](=C1)C.F[P-](F)(F)(F)(F)F,F[P-](F)(F)(F)(F)F.[n+]1(C)ccn(c1)CCCC,33,1,447,33
343.0,0.1,0.143,Training,1-butyl-3-methylimidazolium hexafluorophosphate,CCCCN1C=C[N+](=C1)C.F[P-](F)(F)(F)(F)F,F[P-](F)(F)(F)(F)F.c1n(CCCC)c[n+](c1)C,33,1,447,33
343.0,0.1,0.143,Training,1-butyl-3-methylimidazolium hexafluorophosphate,CCCCN1C=C[N+](=C1)C.F[P-](F)(F)(F)(F)F,F[P-](F)(F)(F)(F)F.n1(c[n+](C)cc1)CCCC,33,1,447,33
343.0,0.1,0.143,Training,1-butyl-3-methylimidazolium hexafluorophosphate,CCCCN1C=C[N+](=C1)C.F[P-](F)(F)(F)(F)F,C[n+]1cn(cc1)CCCC.F[P-](F)(F)(F)(F)F,33,1,447,33
343.0,0.1,0.143,Training,1-butyl-3-methylimidazolium hexafluorophosphate,CCCCN1C=C[N+](=C1)C.F[P-](F)(F)(F)(F)F,CCCCn1c[n+](C)cc1.F[P-](F)(F)(F)(F)F,33,1,447,33
353.0,0.1,0.143,Training,1-butyl-3-methylimidazolium hexafluorophosphate,CCCCN1C=C[N+](=C1)C.F[P-](F)(F)(F)(F)F,CCCCn1cc[n+](C)c1.F[P-](F)(F)(F)(F)F,33,1,448,33
353.0,0.1,0.143,Training,1-butyl-3-methylimidazolium hexafluorophosphate,CCCCN1C=C[N+](=C1)C.F[P-](F)(F)(F)(F)F,[P-](F)(F)(F)(F)(F)F.[n+]1(cn(CCCC)cc1)C,33,1,448,33
353.0,0.1,0.143,Training,1-butyl-3-methylimidazolium hexafluorophosphate,CCCCN1C=C[N+](=C1)C.F[P-](F)(F)(F)(F)F,C(CCC)n1c[n+](C)cc1.F[P-](F)(F)(F)(F)F,33,1,448,33
353.0,0.1,0.143,Training,1-butyl-3-methylimidazolium hexafluorophosphate,CCCCN1C=C[N+](=C1)C.F[P-](F)(F)(F)(F)F,F[P-](F)(F)(F)(F)F.c1[n+](C)ccn1CCCC,33,1,448,33
353.0,0.1,0.143,Training,1-butyl-3-methylimidazolium hexafluorophosphate,CCCCN1C=C[N+](=C1)C.F[P-](F)(F)(F)(F)F,[P-](F)(F)(F)(F)(F)F.[n+]1(ccn(CCCC)c1)C,33,1,448,33
353.0,0.1,0.143,Training,1-butyl-3-methylimidazolium hexafluorophosphate,CCCCN1C=C[N+](=C1)C.F[P-](F)(F)(F)(F)F,F[P-](F)(F)(F)(F)F.n1(CCCC)c[n+](cc1)C,33,1,448,33
353.0,0.1,0.143,Training,1-butyl-3-methylimidazolium hexafluorophosphate,CCCCN1C=C[N+](=C1)C.F[P-](F)(F)(F)(F)F,[P-](F)(F)(F)(F)(F)F.c1cn(c[n+]1C)CCCC,33,1,448,33
353.0,0.1,0.143,Training,1-butyl-3-methylimidazolium hexafluorophosphate,CCCCN1C=C[N+](=C1)C.F[P-](F)(F)(F)(F)F,C[n+]1ccn(c1)CCCC.F[P-](F)(F)(F)(F)F,33,1,448,33
353.0,0.1,0.143,Training,1-butyl-3-methylimidazolium hexafluorophosphate,CCCCN1C=C[N+](=C1)C.F[P-](F)(F)(F)(F)F,[P-](F)(F)(F)(F)(F)F.[n+]1(C)cn(cc1)CCCC,33,1,448,33
353.0,0.1,0.143,Training,1-butyl-3-methylimidazolium hexafluorophosphate,CCCCN1C=C[N+](=C1)C.F[P-](F)(F)(F)(F)F,C(C)CCn1cc[n+](c1)C.F[P-](F)(F)(F)(F)F,33,1,448,33
293.0,0.1,0.142,Training,1-hexyl-3-methylimidazolium hexafluorophosphate,CCCCCCN1C=C[N+](=C1)C.F[P-](F)(F)(F)(F)F,CCCCCCn1cc[n+](C)c1.F[P-](F)(F)(F)(F)F,34,1,449,34
293.0,0.1,0.142,Training,1-hexyl-3-methylimidazolium hexafluorophosphate,CCCCCCN1C=C[N+](=C1)C.F[P-](F)(F)(F)(F)F,C(CCCCn1c[n+](cc1)C)C.F[P-](F)(F)(F)(F)F,34,1,449,34
293.0,0.1,0.142,Training,1-hexyl-3-methylimidazolium hexafluorophosphate,CCCCCCN1C=C[N+](=C1)C.F[P-](F)(F)(F)(F)F,F[P-](F)(F)(F)(F)F.c1n(CCCCCC)cc[n+]1C,34,1,449,34
293.0,0.1,0.142,Training,1-hexyl-3-methylimidazolium hexafluorophosphate,CCCCCCN1C=C[N+](=C1)C.F[P-](F)(F)(F)(F)F,C(C)CCCCn1c[n+](cc1)C.F[P-](F)(F)(F)(F)F,34,1,449,34
293.0,0.1,0.142,Training,1-hexyl-3-methylimidazolium hexafluorophosphate,CCCCCCN1C=C[N+](=C1)C.F[P-](F)(F)(F)(F)F,F[P-](F)(F)(F)(F)F.c1n(c[n+](c1)C)CCCCCC,34,1,449,34
293.0,0.1,0.142,Training,1-hexyl-3-methylimidazolium hexafluorophosphate,CCCCCCN1C=C[N+](=C1)C.F[P-](F)(F)(F)(F)F,F[P-](F)(F)(F)(F)F.c1[n+](C)ccn1CCCCCC,34,1,449,34
293.0,0.1,0.142,Training,1-hexyl-3-methylimidazolium hexafluorophosphate,CCCCCCN1C=C[N+](=C1)C.F[P-](F)(F)(F)(F)F,C(CCC)CCn1cc[n+](c1)C.[P-](F)(F)(F)(F)(F)F,34,1,449,34
293.0,0.1,0.142,Training,1-hexyl-3-methylimidazolium hexafluorophosphate,CCCCCCN1C=C[N+](=C1)C.F[P-](F)(F)(F)(F)F,C(CCCn1cc[n+](c1)C)CC.F[P-](F)(F)(F)(F)F,34,1,449,34
293.0,0.1,0.142,Training,1-hexyl-3-methylimidazolium hexafluorophosphate,CCCCCCN1C=C[N+](=C1)C.F[P-](F)(F)(F)(F)F,CCCCCCn1c[n+](cc1)C.[P-](F)(F)(F)(F)(F)F,34,1,449,34
303.0,0.1,0.141,Training,1-hexyl-3-methylimidazolium hexafluorophosphate,CCCCCCN1C=C[N+](=C1)C.F[P-](F)(F)(F)(F)F,CCCCCCn1cc[n+](C)c1.F[P-](F)(F)(F)(F)F,34,1,450,34
303.0,0.1,0.141,Training,1-hexyl-3-methylimidazolium hexafluorophosphate,CCCCCCN1C=C[N+](=C1)C.F[P-](F)(F)(F)(F)F,C[n+]1cn(CCCCCC)cc1.F[P-](F)(F)(F)(F)F,34,1,450,34
303.0,0.1,0.141,Training,1-hexyl-3-methylimidazolium hexafluorophosphate,CCCCCCN1C=C[N+](=C1)C.F[P-](F)(F)(F)(F)F,C(CCC)CCn1c[n+](C)cc1.F[P-](F)(F)(F)(F)F,34,1,450,34
303.0,0.1,0.141,Training,1-hexyl-3-methylimidazolium hexafluorophosphate,CCCCCCN1C=C[N+](=C1)C.F[P-](F)(F)(F)(F)F,C(CCC)CCn1cc[n+](C)c1.F[P-](F)(F)(F)(F)F,34,1,450,34
303.0,0.1,0.141,Training,1-hexyl-3-methylimidazolium hexafluorophosphate,CCCCCCN1C=C[N+](=C1)C.F[P-](F)(F)(F)(F)F,C(CCCC)Cn1cc[n+](C)c1.F[P-](F)(F)(F)(F)F,34,1,450,34
303.0,0.1,0.141,Training,1-hexyl-3-methylimidazolium hexafluorophosphate,CCCCCCN1C=C[N+](=C1)C.F[P-](F)(F)(F)(F)F,C(n1cc[n+](c1)C)CCCCC.F[P-](F)(F)(F)(F)F,34,1,450,34
303.0,0.1,0.141,Training,1-hexyl-3-methylimidazolium hexafluorophosphate,CCCCCCN1C=C[N+](=C1)C.F[P-](F)(F)(F)(F)F,F[P-](F)(F)(F)(F)F.[n+]1(C)cn(CCCCCC)cc1,34,1,450,34
303.0,0.1,0.141,Training,1-hexyl-3-methylimidazolium hexafluorophosphate,CCCCCCN1C=C[N+](=C1)C.F[P-](F)(F)(F)(F)F,F[P-](F)(F)(F)(F)F.n1(CCCCCC)c[n+](C)cc1,34,1,450,34