T/K,P/MPa,TC/W m-1 K-1,Data type,Name,SMILES,Normalized SMILES,index,P/bar,RANDOM,IL
283.15,0.1,0.1948,Training,1-ethyl-3-methylimidazolium methylphosphonate,CCN1C=C[N+](=C1)C.CO[P+](=O)[O-],C[n+]1ccn(CC)c1.O=[P+]([O-])OC,10,1,235,10
283.15,0.1,0.1948,Training,1-ethyl-3-methylimidazolium methylphosphonate,CCN1C=C[N+](=C1)C.CO[P+](=O)[O-],CO[P+]([O-])=O.[n+]1(C)ccn(CC)c1,10,1,235,10
283.15,0.1,0.1948,Training,1-ethyl-3-methylimidazolium methylphosphonate,CCN1C=C[N+](=C1)C.CO[P+](=O)[O-],O=[P+]([O-])OC.[n+]1(C)ccn(CC)c1,10,1,235,10
283.15,0.1,0.1948,Training,1-ethyl-3-methylimidazolium methylphosphonate,CCN1C=C[N+](=C1)C.CO[P+](=O)[O-],[P+]([O-])(OC)=O.n1(cc[n+](C)c1)CC,10,1,235,10
293.15,0.1,0.1914,Testing,1-ethyl-3-methylimidazolium methylphosphonate,CCN1C=C[N+](=C1)C.CO[P+](=O)[O-],CCn1cc[n+](C)c1.CO[P+](=O)[O-],10,1,236,10
293.15,0.1,0.1914,Testing,1-ethyl-3-methylimidazolium methylphosphonate,CCN1C=C[N+](=C1)C.CO[P+](=O)[O-],CO[P+](=O)[O-].[n+]1(C)cn(CC)cc1,10,1,236,10
293.15,0.1,0.1914,Testing,1-ethyl-3-methylimidazolium methylphosphonate,CCN1C=C[N+](=C1)C.CO[P+](=O)[O-],[O-][P+](OC)=O.c1c[n+](cn1CC)C,10,1,236,10
293.15,0.1,0.1914,Testing,1-ethyl-3-methylimidazolium methylphosphonate,CCN1C=C[N+](=C1)C.CO[P+](=O)[O-],O=[P+]([O-])OC.n1(CC)c[n+](cc1)C,10,1,236,10
293.15,0.1,0.1914,Testing,1-ethyl-3-methylimidazolium methylphosphonate,CCN1C=C[N+](=C1)C.CO[P+](=O)[O-],O(C)[P+](=O)[O-].[n+]1(C)ccn(c1)CC,10,1,236,10
293.15,0.1,0.1914,Testing,1-ethyl-3-methylimidazolium methylphosphonate,CCN1C=C[N+](=C1)C.CO[P+](=O)[O-],CCn1c[n+](C)cc1.CO[P+](=O)[O-],10,1,236,10
293.15,0.1,0.1914,Testing,1-ethyl-3-methylimidazolium methylphosphonate,CCN1C=C[N+](=C1)C.CO[P+](=O)[O-],CCn1cc[n+](c1)C.[O-][P+](=O)OC,10,1,236,10
293.15,0.1,0.1914,Testing,1-ethyl-3-methylimidazolium methylphosphonate,CCN1C=C[N+](=C1)C.CO[P+](=O)[O-],[O-][P+](OC)=O.c1cn(CC)c[n+]1C,10,1,236,10
293.15,0.1,0.1914,Testing,1-ethyl-3-methylimidazolium methylphosphonate,CCN1C=C[N+](=C1)C.CO[P+](=O)[O-],O(C)[P+]([O-])=O.c1n(CC)c[n+](c1)C,10,1,236,10
293.15,0.1,0.1914,Testing,1-ethyl-3-methylimidazolium methylphosphonate,CCN1C=C[N+](=C1)C.CO[P+](=O)[O-],C(n1cc[n+](C)c1)C.O=[P+]([O-])OC,10,1,236,10
303.15,0.1,0.1959,Training,1-ethyl-3-methylimidazolium methylphosphonate,CCN1C=C[N+](=C1)C.CO[P+](=O)[O-],CCn1cc[n+](C)c1.CO[P+](=O)[O-],10,1,237,10
303.15,0.1,0.1959,Training,1-ethyl-3-methylimidazolium methylphosphonate,CCN1C=C[N+](=C1)C.CO[P+](=O)[O-],CCn1c[n+](cc1)C.CO[P+]([O-])=O,10,1,237,10
303.15,0.1,0.1959,Training,1-ethyl-3-methylimidazolium methylphosphonate,CCN1C=C[N+](=C1)C.CO[P+](=O)[O-],[O-][P+](=O)OC.c1n(cc[n+]1C)CC,10,1,237,10
303.15,0.1,0.1959,Training,1-ethyl-3-methylimidazolium methylphosphonate,CCN1C=C[N+](=C1)C.CO[P+](=O)[O-],[O-][P+](=O)OC.c1n(c[n+](C)c1)CC,10,1,237,10
303.15,0.1,0.1959,Training,1-ethyl-3-methylimidazolium methylphosphonate,CCN1C=C[N+](=C1)C.CO[P+](=O)[O-],[P+]([O-])(OC)=O.c1cn(c[n+]1C)CC,10,1,237,10
303.15,0.1,0.1959,Training,1-ethyl-3-methylimidazolium methylphosphonate,CCN1C=C[N+](=C1)C.CO[P+](=O)[O-],[P+]([O-])(=O)OC.c1[n+](C)ccn1CC,10,1,237,10
303.15,0.1,0.1959,Training,1-ethyl-3-methylimidazolium methylphosphonate,CCN1C=C[N+](=C1)C.CO[P+](=O)[O-],[P+]([O-])(OC)=O.c1n(c[n+](c1)C)CC,10,1,237,10
303.15,0.1,0.1959,Training,1-ethyl-3-methylimidazolium methylphosphonate,CCN1C=C[N+](=C1)C.CO[P+](=O)[O-],[O-][P+](=O)OC.c1n(CC)cc[n+]1C,10,1,237,10
303.15,0.1,0.1959,Training,1-ethyl-3-methylimidazolium methylphosphonate,CCN1C=C[N+](=C1)C.CO[P+](=O)[O-],[P+](OC)([O-])=O.[n+]1(ccn(CC)c1)C,10,1,237,10
303.15,0.1,0.1959,Training,1-ethyl-3-methylimidazolium methylphosphonate,CCN1C=C[N+](=C1)C.CO[P+](=O)[O-],CO[P+]([O-])=O.c1cn(CC)c[n+]1C,10,1,237,10
313.15,0.1,0.1915,Training,1-ethyl-3-methylimidazolium methylphosphonate,CCN1C=C[N+](=C1)C.CO[P+](=O)[O-],CCn1cc[n+](C)c1.CO[P+](=O)[O-],10,1,238,10
313.15,0.1,0.1915,Training,1-ethyl-3-methylimidazolium methylphosphonate,CCN1C=C[N+](=C1)C.CO[P+](=O)[O-],C(C)n1c[n+](C)cc1.[O-][P+](=O)OC,10,1,238,10
313.15,0.1,0.1915,Training,1-ethyl-3-methylimidazolium methylphosphonate,CCN1C=C[N+](=C1)C.CO[P+](=O)[O-],O=[P+](OC)[O-].c1n(cc[n+]1C)CC,10,1,238,10
313.15,0.1,0.1915,Training,1-ethyl-3-methylimidazolium methylphosphonate,CCN1C=C[N+](=C1)C.CO[P+](=O)[O-],[P+](=O)(OC)[O-].c1n(cc[n+]1C)CC,10,1,238,10
313.15,0.1,0.1915,Training,1-ethyl-3-methylimidazolium methylphosphonate,CCN1C=C[N+](=C1)C.CO[P+](=O)[O-],CO[P+](=O)[O-].c1[n+](ccn1CC)C,10,1,238,10
313.15,0.1,0.1915,Training,1-ethyl-3-methylimidazolium methylphosphonate,CCN1C=C[N+](=C1)C.CO[P+](=O)[O-],CO[P+]([O-])=O.[n+]1(C)cn(cc1)CC,10,1,238,10
313.15,0.1,0.1915,Training,1-ethyl-3-methylimidazolium methylphosphonate,CCN1C=C[N+](=C1)C.CO[P+](=O)[O-],C(n1cc[n+](c1)C)C.O=[P+](OC)[O-],10,1,238,10
313.15,0.1,0.1915,Training,1-ethyl-3-methylimidazolium methylphosphonate,CCN1C=C[N+](=C1)C.CO[P+](=O)[O-],CCn1cc[n+](C)c1.O(C)[P+]([O-])=O,10,1,238,10
313.15,0.1,0.1915,Training,1-ethyl-3-methylimidazolium methylphosphonate,CCN1C=C[N+](=C1)C.CO[P+](=O)[O-],CCn1c[n+](C)cc1.[P+](=O)(OC)[O-],10,1,238,10
313.15,0.1,0.1915,Training,1-ethyl-3-methylimidazolium methylphosphonate,CCN1C=C[N+](=C1)C.CO[P+](=O)[O-],C(n1cc[n+](c1)C)C.O(C)[P+]([O-])=O,10,1,238,10
323.15,0.1,0.1906,Training,1-ethyl-3-methylimidazolium methylphosphonate,CCN1C=C[N+](=C1)C.CO[P+](=O)[O-],CCn1cc[n+](C)c1.CO[P+](=O)[O-],10,1,239,10
323.15,0.1,0.1906,Training,1-ethyl-3-methylimidazolium methylphosphonate,CCN1C=C[N+](=C1)C.CO[P+](=O)[O-],O([P+]([O-])=O)C.c1[n+](cn(c1)CC)C,10,1,239,10
323.15,0.1,0.1906,Training,1-ethyl-3-methylimidazolium methylphosphonate,CCN1C=C[N+](=C1)C.CO[P+](=O)[O-],C(C)n1c[n+](C)cc1.O(C)[P+]([O-])=O,10,1,239,10
323.15,0.1,0.1906,Training,1-ethyl-3-methylimidazolium methylphosphonate,CCN1C=C[N+](=C1)C.CO[P+](=O)[O-],O(C)[P+]([O-])=O.c1n(c[n+](c1)C)CC,10,1,239,10
323.15,0.1,0.1906,Training,1-ethyl-3-methylimidazolium methylphosphonate,CCN1C=C[N+](=C1)C.CO[P+](=O)[O-],[P+](OC)(=O)[O-].c1c[n+](cn1CC)C,10,1,239,10
323.15,0.1,0.1906,Training,1-ethyl-3-methylimidazolium methylphosphonate,CCN1C=C[N+](=C1)C.CO[P+](=O)[O-],C(C)n1c[n+](cc1)C.O([P+](=O)[O-])C,10,1,239,10
323.15,0.1,0.1906,Training,1-ethyl-3-methylimidazolium methylphosphonate,CCN1C=C[N+](=C1)C.CO[P+](=O)[O-],[O-][P+](=O)OC.c1[n+](C)cn(c1)CC,10,1,239,10
323.15,0.1,0.1906,Training,1-ethyl-3-methylimidazolium methylphosphonate,CCN1C=C[N+](=C1)C.CO[P+](=O)[O-],CO[P+](=O)[O-].c1[n+](cn(CC)c1)C,10,1,239,10
323.15,0.1,0.1906,Training,1-ethyl-3-methylimidazolium methylphosphonate,CCN1C=C[N+](=C1)C.CO[P+](=O)[O-],CCn1c[n+](cc1)C.O=[P+](OC)[O-],10,1,239,10
323.15,0.1,0.1906,Training,1-ethyl-3-methylimidazolium methylphosphonate,CCN1C=C[N+](=C1)C.CO[P+](=O)[O-],C[n+]1cn(cc1)CC.[O-][P+](OC)=O,10,1,239,10
333.15,0.1,0.1908,Testing,1-ethyl-3-methylimidazolium methylphosphonate,CCN1C=C[N+](=C1)C.CO[P+](=O)[O-],CCn1cc[n+](C)c1.CO[P+](=O)[O-],10,1,240,10
333.15,0.1,0.1908,Testing,1-ethyl-3-methylimidazolium methylphosphonate,CCN1C=C[N+](=C1)C.CO[P+](=O)[O-],[O-][P+](=O)OC.c1n(CC)cc[n+]1C,10,1,240,10
333.15,0.1,0.1908,Testing,1-ethyl-3-methylimidazolium methylphosphonate,CCN1C=C[N+](=C1)C.CO[P+](=O)[O-],O=[P+]([O-])OC.c1c[n+](C)cn1CC,10,1,240,10
333.15,0.1,0.1908,Testing,1-ethyl-3-methylimidazolium methylphosphonate,CCN1C=C[N+](=C1)C.CO[P+](=O)[O-],CO[P+](=O)[O-].c1cn(CC)c[n+]1C,10,1,240,10
333.15,0.1,0.1908,Testing,1-ethyl-3-methylimidazolium methylphosphonate,CCN1C=C[N+](=C1)C.CO[P+](=O)[O-],CO[P+]([O-])=O.c1[n+](C)cn(CC)c1,10,1,240,10
333.15,0.1,0.1908,Testing,1-ethyl-3-methylimidazolium methylphosphonate,CCN1C=C[N+](=C1)C.CO[P+](=O)[O-],O([P+]([O-])=O)C.[n+]1(ccn(c1)CC)C,10,1,240,10
333.15,0.1,0.1908,Testing,1-ethyl-3-methylimidazolium methylphosphonate,CCN1C=C[N+](=C1)C.CO[P+](=O)[O-],C[n+]1cn(cc1)CC.[P+](OC)(=O)[O-],10,1,240,10
333.15,0.1,0.1908,Testing,1-ethyl-3-methylimidazolium methylphosphonate,CCN1C=C[N+](=C1)C.CO[P+](=O)[O-],CO[P+](=O)[O-].C[n+]1cn(CC)cc1,10,1,240,10
333.15,0.1,0.1908,Testing,1-ethyl-3-methylimidazolium methylphosphonate,CCN1C=C[N+](=C1)C.CO[P+](=O)[O-],[O-][P+](=O)OC.[n+]1(ccn(c1)CC)C,10,1,240,10
333.15,0.1,0.1908,Testing,1-ethyl-3-methylimidazolium methylphosphonate,CCN1C=C[N+](=C1)C.CO[P+](=O)[O-],O=[P+](OC)[O-].c1n(CC)cc[n+]1C,10,1,240,10
343.15,0.1,0.1917,Testing,1-ethyl-3-methylimidazolium methylphosphonate,CCN1C=C[N+](=C1)C.CO[P+](=O)[O-],CCn1cc[n+](C)c1.CO[P+](=O)[O-],10,1,241,10
343.15,0.1,0.1917,Testing,1-ethyl-3-methylimidazolium methylphosphonate,CCN1C=C[N+](=C1)C.CO[P+](=O)[O-],CO[P+]([O-])=O.[n+]1(C)ccn(c1)CC,10,1,241,10
343.15,0.1,0.1917,Testing,1-ethyl-3-methylimidazolium methylphosphonate,CCN1C=C[N+](=C1)C.CO[P+](=O)[O-],CO[P+](=O)[O-].c1[n+](cn(c1)CC)C,10,1,241,10
343.15,0.1,0.1917,Testing,1-ethyl-3-methylimidazolium methylphosphonate,CCN1C=C[N+](=C1)C.CO[P+](=O)[O-],O(C)[P+]([O-])=O.n1(CC)cc[n+](c1)C,10,1,241,10
343.15,0.1,0.1917,Testing,1-ethyl-3-methylimidazolium methylphosphonate,CCN1C=C[N+](=C1)C.CO[P+](=O)[O-],[O-][P+](OC)=O.c1[n+](ccn1CC)C,10,1,241,10
343.15,0.1,0.1917,Testing,1-ethyl-3-methylimidazolium methylphosphonate,CCN1C=C[N+](=C1)C.CO[P+](=O)[O-],CCn1cc[n+](C)c1.CO[P+]([O-])=O,10,1,241,10
343.15,0.1,0.1917,Testing,1-ethyl-3-methylimidazolium methylphosphonate,CCN1C=C[N+](=C1)C.CO[P+](=O)[O-],[O-][P+](=O)OC.[n+]1(C)ccn(c1)CC,10,1,241,10
343.15,0.1,0.1917,Testing,1-ethyl-3-methylimidazolium methylphosphonate,CCN1C=C[N+](=C1)C.CO[P+](=O)[O-],[O-][P+](=O)OC.n1(CC)cc[n+](C)c1,10,1,241,10
343.15,0.1,0.1917,Testing,1-ethyl-3-methylimidazolium methylphosphonate,CCN1C=C[N+](=C1)C.CO[P+](=O)[O-],C[n+]1cn(cc1)CC.[O-][P+](OC)=O,10,1,241,10
343.15,0.1,0.1917,Testing,1-ethyl-3-methylimidazolium methylphosphonate,CCN1C=C[N+](=C1)C.CO[P+](=O)[O-],CO[P+](=O)[O-].C[n+]1ccn(CC)c1,10,1,241,10
353.15,0.1,0.1902,Training,1-ethyl-3-methylimidazolium methylphosphonate,CCN1C=C[N+](=C1)C.CO[P+](=O)[O-],CCn1cc[n+](C)c1.CO[P+](=O)[O-],10,1,242,10
353.15,0.1,0.1902,Training,1-ethyl-3-methylimidazolium methylphosphonate,CCN1C=C[N+](=C1)C.CO[P+](=O)[O-],C(C)n1c[n+](cc1)C.O=[P+]([O-])OC,10,1,242,10
353.15,0.1,0.1902,Training,1-ethyl-3-methylimidazolium methylphosphonate,CCN1C=C[N+](=C1)C.CO[P+](=O)[O-],CCn1c[n+](C)cc1.[O-][P+](OC)=O,10,1,242,10
353.15,0.1,0.1902,Training,1-ethyl-3-methylimidazolium methylphosphonate,CCN1C=C[N+](=C1)C.CO[P+](=O)[O-],O(C)[P+](=O)[O-].c1[n+](cn(c1)CC)C,10,1,242,10
353.15,0.1,0.1902,Training,1-ethyl-3-methylimidazolium methylphosphonate,CCN1C=C[N+](=C1)C.CO[P+](=O)[O-],O(C)[P+](=O)[O-].c1cn(CC)c[n+]1C,10,1,242,10
353.15,0.1,0.1902,Training,1-ethyl-3-methylimidazolium methylphosphonate,CCN1C=C[N+](=C1)C.CO[P+](=O)[O-],C[n+]1ccn(CC)c1.O=[P+](OC)[O-],10,1,242,10
353.15,0.1,0.1902,Training,1-ethyl-3-methylimidazolium methylphosphonate,CCN1C=C[N+](=C1)C.CO[P+](=O)[O-],C[n+]1ccn(CC)c1.O([P+](=O)[O-])C,10,1,242,10
353.15,0.1,0.1902,Training,1-ethyl-3-methylimidazolium methylphosphonate,CCN1C=C[N+](=C1)C.CO[P+](=O)[O-],C(n1cc[n+](C)c1)C.CO[P+]([O-])=O,10,1,242,10
353.15,0.1,0.1902,Training,1-ethyl-3-methylimidazolium methylphosphonate,CCN1C=C[N+](=C1)C.CO[P+](=O)[O-],[O-][P+](OC)=O.n1(cc[n+](c1)C)CC,10,1,242,10
353.15,0.1,0.1902,Training,1-ethyl-3-methylimidazolium methylphosphonate,CCN1C=C[N+](=C1)C.CO[P+](=O)[O-],O=[P+](OC)[O-].c1[n+](cn(CC)c1)C,10,1,242,10
273.15,0.1,0.1876,Training,1-ethyl-3-methylimidazolium ethylsulfate,CCN1C=C[N+](=C1)C.CCOS(=O)(=O)[O-],CCOS(=O)(=O)[O-].CCn1cc[n+](C)c1,11,1,243,11
273.15,0.1,0.1876,Training,1-ethyl-3-methylimidazolium ethylsulfate,CCN1C=C[N+](=C1)C.CCOS(=O)(=O)[O-],[O-]S(=O)(OCC)=O.c1cn(c[n+]1C)CC,11,1,243,11
273.15,0.1,0.1876,Training,1-ethyl-3-methylimidazolium ethylsulfate,CCN1C=C[N+](=C1)C.CCOS(=O)(=O)[O-],CCn1cc[n+](C)c1.[O-]S(=O)(=O)OCC,11,1,243,11
273.15,0.1,0.1876,Training,1-ethyl-3-methylimidazolium ethylsulfate,CCN1C=C[N+](=C1)C.CCOS(=O)(=O)[O-],CCOS(=O)(=O)[O-].CCn1c[n+](C)cc1,11,1,243,11
273.15,0.1,0.1876,Training,1-ethyl-3-methylimidazolium ethylsulfate,CCN1C=C[N+](=C1)C.CCOS(=O)(=O)[O-],C(C)OS([O-])(=O)=O.CCn1cc[n+](C)c1,11,1,243,11
273.15,0.1,0.1876,Training,1-ethyl-3-methylimidazolium ethylsulfate,CCN1C=C[N+](=C1)C.CCOS(=O)(=O)[O-],CCn1c[n+](C)cc1.O(S([O-])(=O)=O)CC,11,1,243,11
273.15,0.1,0.1876,Training,1-ethyl-3-methylimidazolium ethylsulfate,CCN1C=C[N+](=C1)C.CCOS(=O)(=O)[O-],C(OS([O-])(=O)=O)C.C(n1cc[n+](C)c1)C,11,1,243,11
273.15,0.1,0.1876,Training,1-ethyl-3-methylimidazolium ethylsulfate,CCN1C=C[N+](=C1)C.CCOS(=O)(=O)[O-],O=S([O-])(=O)OCC.[n+]1(C)cn(CC)cc1,11,1,243,11
273.15,0.1,0.1876,Training,1-ethyl-3-methylimidazolium ethylsulfate,CCN1C=C[N+](=C1)C.CCOS(=O)(=O)[O-],CCOS(=O)([O-])=O.c1[n+](cn(CC)c1)C,11,1,243,11
273.15,0.1,0.1876,Training,1-ethyl-3-methylimidazolium ethylsulfate,CCN1C=C[N+](=C1)C.CCOS(=O)(=O)[O-],CCOS([O-])(=O)=O.c1[n+](C)cn(c1)CC,11,1,243,11
283.15,0.1,0.1882,Training,1-ethyl-3-methylimidazolium ethylsulfate,CCN1C=C[N+](=C1)C.CCOS(=O)(=O)[O-],CCOS(=O)(=O)[O-].CCn1cc[n+](C)c1,11,1,244,11
283.15,0.1,0.1882,Training,1-ethyl-3-methylimidazolium ethylsulfate,CCN1C=C[N+](=C1)C.CCOS(=O)(=O)[O-],CCOS(=O)([O-])=O.n1(CC)cc[n+](c1)C,11,1,244,11
283.15,0.1,0.1882,Training,1-ethyl-3-methylimidazolium ethylsulfate,CCN1C=C[N+](=C1)C.CCOS(=O)(=O)[O-],C(OS(=O)(=O)[O-])C.C[n+]1ccn(CC)c1,11,1,244,11
283.15,0.1,0.1882,Training,1-ethyl-3-methylimidazolium ethylsulfate,CCN1C=C[N+](=C1)C.CCOS(=O)(=O)[O-],C(OS(=O)([O-])=O)C.c1[n+](C)cn(CC)c1,11,1,244,11
283.15,0.1,0.1882,Training,1-ethyl-3-methylimidazolium ethylsulfate,CCN1C=C[N+](=C1)C.CCOS(=O)(=O)[O-],O=S(OCC)(=O)[O-].c1[n+](cn(c1)CC)C,11,1,244,11
283.15,0.1,0.1882,Training,1-ethyl-3-methylimidazolium ethylsulfate,CCN1C=C[N+](=C1)C.CCOS(=O)(=O)[O-],O=S(OCC)(=O)[O-].c1c[n+](C)cn1CC,11,1,244,11
283.15,0.1,0.1882,Training,1-ethyl-3-methylimidazolium ethylsulfate,CCN1C=C[N+](=C1)C.CCOS(=O)(=O)[O-],O=S([O-])(=O)OCC.c1c[n+](C)cn1CC,11,1,244,11
283.15,0.1,0.1882,Training,1-ethyl-3-methylimidazolium ethylsulfate,CCN1C=C[N+](=C1)C.CCOS(=O)(=O)[O-],C(C)OS(=O)([O-])=O.C(C)n1c[n+](C)cc1,11,1,244,11
283.15,0.1,0.1882,Training,1-ethyl-3-methylimidazolium ethylsulfate,CCN1C=C[N+](=C1)C.CCOS(=O)(=O)[O-],C[n+]1cn(cc1)CC.S([O-])(=O)(OCC)=O,11,1,244,11
283.15,0.1,0.1882,Training,1-ethyl-3-methylimidazolium ethylsulfate,CCN1C=C[N+](=C1)C.CCOS(=O)(=O)[O-],C(C)n1cc[n+](C)c1.O(S(=O)(=O)[O-])CC,11,1,244,11
293.15,0.1,0.1856,Testing,1-ethyl-3-methylimidazolium ethylsulfate,CCN1C=C[N+](=C1)C.CCOS(=O)(=O)[O-],CCOS(=O)(=O)[O-].CCn1cc[n+](C)c1,11,1,245,11
293.15,0.1,0.1856,Testing,1-ethyl-3-methylimidazolium ethylsulfate,CCN1C=C[N+](=C1)C.CCOS(=O)(=O)[O-],C(OS(=O)([O-])=O)C.n1(cc[n+](C)c1)CC,11,1,245,11
293.15,0.1,0.1856,Testing,1-ethyl-3-methylimidazolium ethylsulfate,CCN1C=C[N+](=C1)C.CCOS(=O)(=O)[O-],C(C)n1c[n+](C)cc1.O=S([O-])(OCC)=O,11,1,245,11
293.15,0.1,0.1856,Testing,1-ethyl-3-methylimidazolium ethylsulfate,CCN1C=C[N+](=C1)C.CCOS(=O)(=O)[O-],O=S(OCC)([O-])=O.c1[n+](ccn1CC)C,11,1,245,11
293.15,0.1,0.1856,Testing,1-ethyl-3-methylimidazolium ethylsulfate,CCN1C=C[N+](=C1)C.CCOS(=O)(=O)[O-],C(C)OS(=O)(=O)[O-].c1n(c[n+](c1)C)CC,11,1,245,11
293.15,0.1,0.1856,Testing,1-ethyl-3-methylimidazolium ethylsulfate,CCN1C=C[N+](=C1)C.CCOS(=O)(=O)[O-],C(C)n1cc[n+](C)c1.S(=O)(=O)([O-])OCC,11,1,245,11
293.15,0.1,0.1856,Testing,1-ethyl-3-methylimidazolium ethylsulfate,CCN1C=C[N+](=C1)C.CCOS(=O)(=O)[O-],O(CC)S(=O)([O-])=O.n1(c[n+](cc1)C)CC,11,1,245,11
293.15,0.1,0.1856,Testing,1-ethyl-3-methylimidazolium ethylsulfate,CCN1C=C[N+](=C1)C.CCOS(=O)(=O)[O-],CCOS(=O)(=O)[O-].c1[n+](ccn1CC)C,11,1,245,11
293.15,0.1,0.1856,Testing,1-ethyl-3-methylimidazolium ethylsulfate,CCN1C=C[N+](=C1)C.CCOS(=O)(=O)[O-],C(C)OS([O-])(=O)=O.c1n(cc[n+]1C)CC,11,1,245,11
293.15,0.1,0.1856,Testing,1-ethyl-3-methylimidazolium ethylsulfate,CCN1C=C[N+](=C1)C.CCOS(=O)(=O)[O-],O=S(=O)(OCC)[O-].c1cn(c[n+]1C)CC,11,1,245,11
303.15,0.1,0.1872,Testing,1-ethyl-3-methylimidazolium ethylsulfate,CCN1C=C[N+](=C1)C.CCOS(=O)(=O)[O-],CCOS(=O)(=O)[O-].CCn1cc[n+](C)c1,11,1,246,11
303.15,0.1,0.1872,Testing,1-ethyl-3-methylimidazolium ethylsulfate,CCN1C=C[N+](=C1)C.CCOS(=O)(=O)[O-],CCn1cc[n+](C)c1.O=S(=O)(OCC)[O-],11,1,246,11
303.15,0.1,0.1872,Testing,1-ethyl-3-methylimidazolium ethylsulfate,CCN1C=C[N+](=C1)C.CCOS(=O)(=O)[O-],O(CC)S(=O)([O-])=O.n1(CC)cc[n+](c1)C,11,1,246,11
303.15,0.1,0.1872,Testing,1-ethyl-3-methylimidazolium ethylsulfate,CCN1C=C[N+](=C1)C.CCOS(=O)(=O)[O-],O=S([O-])(=O)OCC.c1[n+](cn(c1)CC)C,11,1,246,11
303.15,0.1,0.1872,Testing,1-ethyl-3-methylimidazolium ethylsulfate,CCN1C=C[N+](=C1)C.CCOS(=O)(=O)[O-],C(OS(=O)(=O)[O-])C.c1cn(CC)c[n+]1C,11,1,246,11
303.15,0.1,0.1872,Testing,1-ethyl-3-methylimidazolium ethylsulfate,CCN1C=C[N+](=C1)C.CCOS(=O)(=O)[O-],CCn1cc[n+](C)c1.O=S(OCC)([O-])=O,11,1,246,11
303.15,0.1,0.1872,Testing,1-ethyl-3-methylimidazolium ethylsulfate,CCN1C=C[N+](=C1)C.CCOS(=O)(=O)[O-],C[n+]1cn(cc1)CC.[O-]S(=O)(=O)OCC,11,1,246,11
303.15,0.1,0.1872,Testing,1-ethyl-3-methylimidazolium ethylsulfate,CCN1C=C[N+](=C1)C.CCOS(=O)(=O)[O-],C(n1cc[n+](C)c1)C.O=S(OCC)([O-])=O,11,1,246,11
303.15,0.1,0.1872,Testing,1-ethyl-3-methylimidazolium ethylsulfate,CCN1C=C[N+](=C1)C.CCOS(=O)(=O)[O-],CCOS([O-])(=O)=O.[n+]1(C)cn(cc1)CC,11,1,246,11
303.15,0.1,0.1872,Testing,1-ethyl-3-methylimidazolium ethylsulfate,CCN1C=C[N+](=C1)C.CCOS(=O)(=O)[O-],O=S(=O)([O-])OCC.[n+]1(C)cn(cc1)CC,11,1,246,11
313.15,0.1,0.184,Training,1-ethyl-3-methylimidazolium ethylsulfate,CCN1C=C[N+](=C1)C.CCOS(=O)(=O)[O-],CCOS(=O)(=O)[O-].CCn1cc[n+](C)c1,11,1,247,11
313.15,0.1,0.184,Training,1-ethyl-3-methylimidazolium ethylsulfate,CCN1C=C[N+](=C1)C.CCOS(=O)(=O)[O-],O(S(=O)([O-])=O)CC.c1c[n+](C)cn1CC,11,1,247,11
313.15,0.1,0.184,Training,1-ethyl-3-methylimidazolium ethylsulfate,CCN1C=C[N+](=C1)C.CCOS(=O)(=O)[O-],CCn1cc[n+](C)c1.O=S(OCC)([O-])=O,11,1,247,11
313.15,0.1,0.184,Training,1-ethyl-3-methylimidazolium ethylsulfate,CCN1C=C[N+](=C1)C.CCOS(=O)(=O)[O-],C(OS([O-])(=O)=O)C.CCn1c[n+](C)cc1,11,1,247,11
313.15,0.1,0.184,Training,1-ethyl-3-methylimidazolium ethylsulfate,CCN1C=C[N+](=C1)C.CCOS(=O)(=O)[O-],C(C)n1cc[n+](c1)C.O=S(OCC)(=O)[O-],11,1,247,11
313.15,0.1,0.184,Training,1-ethyl-3-methylimidazolium ethylsulfate,CCN1C=C[N+](=C1)C.CCOS(=O)(=O)[O-],CCOS(=O)([O-])=O.c1n(c[n+](c1)C)CC,11,1,247,11
313.15,0.1,0.184,Training,1-ethyl-3-methylimidazolium ethylsulfate,CCN1C=C[N+](=C1)C.CCOS(=O)(=O)[O-],O=S([O-])(OCC)=O.n1(CC)cc[n+](c1)C,11,1,247,11
313.15,0.1,0.184,Training,1-ethyl-3-methylimidazolium ethylsulfate,CCN1C=C[N+](=C1)C.CCOS(=O)(=O)[O-],O(CC)S(=O)([O-])=O.c1n(c[n+](c1)C)CC,11,1,247,11
313.15,0.1,0.184,Training,1-ethyl-3-methylimidazolium ethylsulfate,CCN1C=C[N+](=C1)C.CCOS(=O)(=O)[O-],O=S(OCC)([O-])=O.c1[n+](C)cn(c1)CC,11,1,247,11
313.15,0.1,0.184,Training,1-ethyl-3-methylimidazolium ethylsulfate,CCN1C=C[N+](=C1)C.CCOS(=O)(=O)[O-],C[n+]1cn(CC)cc1.O(CC)S(=O)(=O)[O-],11,1,247,11
323.15,0.1,0.1833,Training,1-ethyl-3-methylimidazolium ethylsulfate,CCN1C=C[N+](=C1)C.CCOS(=O)(=O)[O-],CCOS(=O)(=O)[O-].CCn1cc[n+](C)c1,11,1,248,11
323.15,0.1,0.1833,Training,1-ethyl-3-methylimidazolium ethylsulfate,CCN1C=C[N+](=C1)C.CCOS(=O)(=O)[O-],CCOS(=O)(=O)[O-].[n+]1(C)ccn(CC)c1,11,1,248,11
323.15,0.1,0.1833,Training,1-ethyl-3-methylimidazolium ethylsulfate,CCN1C=C[N+](=C1)C.CCOS(=O)(=O)[O-],O(CC)S([O-])(=O)=O.c1cn(CC)c[n+]1C,11,1,248,11
323.15,0.1,0.1833,Training,1-ethyl-3-methylimidazolium ethylsulfate,CCN1C=C[N+](=C1)C.CCOS(=O)(=O)[O-],C(n1cc[n+](C)c1)C.S(=O)(OCC)(=O)[O-],11,1,248,11
323.15,0.1,0.1833,Training,1-ethyl-3-methylimidazolium ethylsulfate,CCN1C=C[N+](=C1)C.CCOS(=O)(=O)[O-],C[n+]1ccn(c1)CC.[O-]S(OCC)(=O)=O,11,1,248,11
323.15,0.1,0.1833,Training,1-ethyl-3-methylimidazolium ethylsulfate,CCN1C=C[N+](=C1)C.CCOS(=O)(=O)[O-],C[n+]1ccn(CC)c1.O=S(=O)(OCC)[O-],11,1,248,11
323.15,0.1,0.1833,Training,1-ethyl-3-methylimidazolium ethylsulfate,CCN1C=C[N+](=C1)C.CCOS(=O)(=O)[O-],O(S(=O)([O-])=O)CC.[n+]1(C)ccn(c1)CC,11,1,248,11
323.15,0.1,0.1833,Training,1-ethyl-3-methylimidazolium ethylsulfate,CCN1C=C[N+](=C1)C.CCOS(=O)(=O)[O-],[O-]S(OCC)(=O)=O.n1(CC)cc[n+](C)c1,11,1,248,11
323.15,0.1,0.1833,Training,1-ethyl-3-methylimidazolium ethylsulfate,CCN1C=C[N+](=C1)C.CCOS(=O)(=O)[O-],[O-]S(OCC)(=O)=O.c1c[n+](cn1CC)C,11,1,248,11