T/K,P/MPa,TC/W m-1 K-1,Data type,Name,SMILES,Normalized SMILES,index,P/bar,RANDOM,IL
295.1,0.1,0.145,Training,1-octyl-3-methylimidazolium hexafluorophosphate,CCCCCCCCN1C=C[N+](=C1)C.F[P-](F)(F)(F)(F)F,CCCCCCCCn1cc[n+](c1)C.F[P-](F)(F)(F)(F)F,39,1,519,39
295.1,0.1,0.145,Training,1-octyl-3-methylimidazolium hexafluorophosphate,CCCCCCCCN1C=C[N+](=C1)C.F[P-](F)(F)(F)(F)F,C(C)CCCCCCn1cc[n+](c1)C.F[P-](F)(F)(F)(F)F,39,1,519,39
295.1,0.1,0.145,Training,1-octyl-3-methylimidazolium hexafluorophosphate,CCCCCCCCN1C=C[N+](=C1)C.F[P-](F)(F)(F)(F)F,C(CCn1c[n+](C)cc1)CCCCC.F[P-](F)(F)(F)(F)F,39,1,519,39
295.1,10.0,0.147,Training,1-octyl-3-methylimidazolium hexafluorophosphate,CCCCCCCCN1C=C[N+](=C1)C.F[P-](F)(F)(F)(F)F,CCCCCCCCn1cc[n+](C)c1.F[P-](F)(F)(F)(F)F,39,100,520,39
295.1,10.0,0.147,Training,1-octyl-3-methylimidazolium hexafluorophosphate,CCCCCCCCN1C=C[N+](=C1)C.F[P-](F)(F)(F)(F)F,F[P-](F)(F)(F)(F)F.c1n(CCCCCCCC)c[n+](C)c1,39,100,520,39
295.1,10.0,0.147,Training,1-octyl-3-methylimidazolium hexafluorophosphate,CCCCCCCCN1C=C[N+](=C1)C.F[P-](F)(F)(F)(F)F,C(CCCn1cc[n+](C)c1)CCCC.F[P-](F)(F)(F)(F)F,39,100,520,39
295.1,10.0,0.147,Training,1-octyl-3-methylimidazolium hexafluorophosphate,CCCCCCCCN1C=C[N+](=C1)C.F[P-](F)(F)(F)(F)F,C(C)CCCCCCn1c[n+](cc1)C.[P-](F)(F)(F)(F)(F)F,39,100,520,39
295.1,10.0,0.147,Training,1-octyl-3-methylimidazolium hexafluorophosphate,CCCCCCCCN1C=C[N+](=C1)C.F[P-](F)(F)(F)(F)F,F[P-](F)(F)(F)(F)F.c1n(CCCCCCCC)cc[n+]1C,39,100,520,39
295.1,10.0,0.147,Training,1-octyl-3-methylimidazolium hexafluorophosphate,CCCCCCCCN1C=C[N+](=C1)C.F[P-](F)(F)(F)(F)F,C[n+]1ccn(CCCCCCCC)c1.F[P-](F)(F)(F)(F)F,39,100,520,39
295.1,10.0,0.147,Training,1-octyl-3-methylimidazolium hexafluorophosphate,CCCCCCCCN1C=C[N+](=C1)C.F[P-](F)(F)(F)(F)F,F[P-](F)(F)(F)(F)F.[n+]1(ccn(CCCCCCCC)c1)C,39,100,520,39
295.1,10.0,0.147,Training,1-octyl-3-methylimidazolium hexafluorophosphate,CCCCCCCCN1C=C[N+](=C1)C.F[P-](F)(F)(F)(F)F,C(CCCCCCn1c[n+](C)cc1)C.F[P-](F)(F)(F)(F)F,39,100,520,39
295.1,10.0,0.147,Training,1-octyl-3-methylimidazolium hexafluorophosphate,CCCCCCCCN1C=C[N+](=C1)C.F[P-](F)(F)(F)(F)F,C(Cn1cc[n+](C)c1)CCCCCC.[P-](F)(F)(F)(F)(F)F,39,100,520,39
295.1,10.0,0.147,Training,1-octyl-3-methylimidazolium hexafluorophosphate,CCCCCCCCN1C=C[N+](=C1)C.F[P-](F)(F)(F)(F)F,F[P-](F)(F)(F)(F)F.[n+]1(C)ccn(c1)CCCCCCCC,39,100,520,39
295.1,20.0,0.147,Training,1-octyl-3-methylimidazolium hexafluorophosphate,CCCCCCCCN1C=C[N+](=C1)C.F[P-](F)(F)(F)(F)F,CCCCCCCCn1cc[n+](C)c1.F[P-](F)(F)(F)(F)F,39,200,521,39
295.1,20.0,0.147,Training,1-octyl-3-methylimidazolium hexafluorophosphate,CCCCCCCCN1C=C[N+](=C1)C.F[P-](F)(F)(F)(F)F,C(CC)CCCCCn1c[n+](cc1)C.F[P-](F)(F)(F)(F)F,39,200,521,39
295.1,20.0,0.147,Training,1-octyl-3-methylimidazolium hexafluorophosphate,CCCCCCCCN1C=C[N+](=C1)C.F[P-](F)(F)(F)(F)F,F[P-](F)(F)(F)(F)F.c1n(CCCCCCCC)c[n+](c1)C,39,200,521,39
295.1,20.0,0.147,Training,1-octyl-3-methylimidazolium hexafluorophosphate,CCCCCCCCN1C=C[N+](=C1)C.F[P-](F)(F)(F)(F)F,C(Cn1cc[n+](C)c1)CCCCCC.F[P-](F)(F)(F)(F)F,39,200,521,39
295.1,20.0,0.147,Training,1-octyl-3-methylimidazolium hexafluorophosphate,CCCCCCCCN1C=C[N+](=C1)C.F[P-](F)(F)(F)(F)F,C(CCCCC)CCn1c[n+](cc1)C.[P-](F)(F)(F)(F)(F)F,39,200,521,39
295.1,20.0,0.147,Training,1-octyl-3-methylimidazolium hexafluorophosphate,CCCCCCCCN1C=C[N+](=C1)C.F[P-](F)(F)(F)(F)F,[P-](F)(F)(F)(F)(F)F.c1c[n+](cn1CCCCCCCC)C,39,200,521,39
295.1,20.0,0.147,Training,1-octyl-3-methylimidazolium hexafluorophosphate,CCCCCCCCN1C=C[N+](=C1)C.F[P-](F)(F)(F)(F)F,C(n1cc[n+](c1)C)CCCCCCC.F[P-](F)(F)(F)(F)F,39,200,521,39
295.1,20.0,0.147,Training,1-octyl-3-methylimidazolium hexafluorophosphate,CCCCCCCCN1C=C[N+](=C1)C.F[P-](F)(F)(F)(F)F,C(CCCCn1cc[n+](C)c1)CCC.F[P-](F)(F)(F)(F)F,39,200,521,39
295.1,20.0,0.147,Training,1-octyl-3-methylimidazolium hexafluorophosphate,CCCCCCCCN1C=C[N+](=C1)C.F[P-](F)(F)(F)(F)F,C(CCCCC)CCn1cc[n+](C)c1.F[P-](F)(F)(F)(F)F,39,200,521,39
295.1,20.0,0.147,Training,1-octyl-3-methylimidazolium hexafluorophosphate,CCCCCCCCN1C=C[N+](=C1)C.F[P-](F)(F)(F)(F)F,C(Cn1cc[n+](c1)C)CCCCCC.F[P-](F)(F)(F)(F)F,39,200,521,39
315.1,0.1,0.145,Training,1-octyl-3-methylimidazolium hexafluorophosphate,CCCCCCCCN1C=C[N+](=C1)C.F[P-](F)(F)(F)(F)F,CCCCCCCCn1cc[n+](C)c1.F[P-](F)(F)(F)(F)F,39,1,522,39
315.1,0.1,0.145,Training,1-octyl-3-methylimidazolium hexafluorophosphate,CCCCCCCCN1C=C[N+](=C1)C.F[P-](F)(F)(F)(F)F,C(n1cc[n+](c1)C)CCCCCCC.F[P-](F)(F)(F)(F)F,39,1,522,39
315.1,0.1,0.145,Training,1-octyl-3-methylimidazolium hexafluorophosphate,CCCCCCCCN1C=C[N+](=C1)C.F[P-](F)(F)(F)(F)F,F[P-](F)(F)(F)(F)F.c1cn(CCCCCCCC)c[n+]1C,39,1,522,39
315.1,0.1,0.145,Training,1-octyl-3-methylimidazolium hexafluorophosphate,CCCCCCCCN1C=C[N+](=C1)C.F[P-](F)(F)(F)(F)F,C(CCCCC)CCn1c[n+](C)cc1.F[P-](F)(F)(F)(F)F,39,1,522,39
315.1,0.1,0.145,Training,1-octyl-3-methylimidazolium hexafluorophosphate,CCCCCCCCN1C=C[N+](=C1)C.F[P-](F)(F)(F)(F)F,C(CCCCC)CCn1cc[n+](C)c1.F[P-](F)(F)(F)(F)F,39,1,522,39
315.1,0.1,0.145,Training,1-octyl-3-methylimidazolium hexafluorophosphate,CCCCCCCCN1C=C[N+](=C1)C.F[P-](F)(F)(F)(F)F,[P-](F)(F)(F)(F)(F)F.c1c[n+](C)cn1CCCCCCCC,39,1,522,39
315.1,0.1,0.145,Training,1-octyl-3-methylimidazolium hexafluorophosphate,CCCCCCCCN1C=C[N+](=C1)C.F[P-](F)(F)(F)(F)F,C(CCCn1c[n+](cc1)C)CCCC.F[P-](F)(F)(F)(F)F,39,1,522,39
315.1,0.1,0.145,Training,1-octyl-3-methylimidazolium hexafluorophosphate,CCCCCCCCN1C=C[N+](=C1)C.F[P-](F)(F)(F)(F)F,C[n+]1cn(cc1)CCCCCCCC.F[P-](F)(F)(F)(F)F,39,1,522,39
315.1,0.1,0.145,Training,1-octyl-3-methylimidazolium hexafluorophosphate,CCCCCCCCN1C=C[N+](=C1)C.F[P-](F)(F)(F)(F)F,F[P-](F)(F)(F)(F)F.n1(cc[n+](c1)C)CCCCCCCC,39,1,522,39
315.1,0.1,0.145,Training,1-octyl-3-methylimidazolium hexafluorophosphate,CCCCCCCCN1C=C[N+](=C1)C.F[P-](F)(F)(F)(F)F,F[P-](F)(F)(F)(F)F.c1[n+](C)cn(CCCCCCCC)c1,39,1,522,39
315.1,10.0,0.146,Training,1-octyl-3-methylimidazolium hexafluorophosphate,CCCCCCCCN1C=C[N+](=C1)C.F[P-](F)(F)(F)(F)F,CCCCCCCCn1cc[n+](C)c1.F[P-](F)(F)(F)(F)F,39,100,523,39
315.1,10.0,0.146,Training,1-octyl-3-methylimidazolium hexafluorophosphate,CCCCCCCCN1C=C[N+](=C1)C.F[P-](F)(F)(F)(F)F,C[n+]1cn(cc1)CCCCCCCC.F[P-](F)(F)(F)(F)F,39,100,523,39
315.1,10.0,0.146,Training,1-octyl-3-methylimidazolium hexafluorophosphate,CCCCCCCCN1C=C[N+](=C1)C.F[P-](F)(F)(F)(F)F,C(CCCn1cc[n+](c1)C)CCCC.F[P-](F)(F)(F)(F)F,39,100,523,39
315.1,10.0,0.146,Training,1-octyl-3-methylimidazolium hexafluorophosphate,CCCCCCCCN1C=C[N+](=C1)C.F[P-](F)(F)(F)(F)F,C(CCCn1cc[n+](C)c1)CCCC.F[P-](F)(F)(F)(F)F,39,100,523,39
315.1,10.0,0.146,Training,1-octyl-3-methylimidazolium hexafluorophosphate,CCCCCCCCN1C=C[N+](=C1)C.F[P-](F)(F)(F)(F)F,C(CC)CCCCCn1cc[n+](c1)C.[P-](F)(F)(F)(F)(F)F,39,100,523,39
315.1,10.0,0.146,Training,1-octyl-3-methylimidazolium hexafluorophosphate,CCCCCCCCN1C=C[N+](=C1)C.F[P-](F)(F)(F)(F)F,F[P-](F)(F)(F)(F)F.[n+]1(C)cn(cc1)CCCCCCCC,39,100,523,39
315.1,10.0,0.146,Training,1-octyl-3-methylimidazolium hexafluorophosphate,CCCCCCCCN1C=C[N+](=C1)C.F[P-](F)(F)(F)(F)F,C(n1cc[n+](C)c1)CCCCCCC.F[P-](F)(F)(F)(F)F,39,100,523,39
315.1,10.0,0.146,Training,1-octyl-3-methylimidazolium hexafluorophosphate,CCCCCCCCN1C=C[N+](=C1)C.F[P-](F)(F)(F)(F)F,F[P-](F)(F)(F)(F)F.n1(cc[n+](c1)C)CCCCCCCC,39,100,523,39
315.1,10.0,0.146,Training,1-octyl-3-methylimidazolium hexafluorophosphate,CCCCCCCCN1C=C[N+](=C1)C.F[P-](F)(F)(F)(F)F,F[P-](F)(F)(F)(F)F.c1[n+](C)ccn1CCCCCCCC,39,100,523,39
315.1,10.0,0.146,Training,1-octyl-3-methylimidazolium hexafluorophosphate,CCCCCCCCN1C=C[N+](=C1)C.F[P-](F)(F)(F)(F)F,C[n+]1ccn(CCCCCCCC)c1.F[P-](F)(F)(F)(F)F,39,100,523,39
315.1,20.0,0.147,Training,1-octyl-3-methylimidazolium hexafluorophosphate,CCCCCCCCN1C=C[N+](=C1)C.F[P-](F)(F)(F)(F)F,CCCCCCCCn1cc[n+](C)c1.F[P-](F)(F)(F)(F)F,39,200,524,39
315.1,20.0,0.147,Training,1-octyl-3-methylimidazolium hexafluorophosphate,CCCCCCCCN1C=C[N+](=C1)C.F[P-](F)(F)(F)(F)F,C(CCCCn1c[n+](C)cc1)CCC.[P-](F)(F)(F)(F)(F)F,39,200,524,39
315.1,20.0,0.147,Training,1-octyl-3-methylimidazolium hexafluorophosphate,CCCCCCCCN1C=C[N+](=C1)C.F[P-](F)(F)(F)(F)F,F[P-](F)(F)(F)(F)F.c1n(cc[n+]1C)CCCCCCCC,39,200,524,39
315.1,20.0,0.147,Training,1-octyl-3-methylimidazolium hexafluorophosphate,CCCCCCCCN1C=C[N+](=C1)C.F[P-](F)(F)(F)(F)F,F[P-](F)(F)(F)(F)F.c1[n+](C)ccn1CCCCCCCC,39,200,524,39
315.1,20.0,0.147,Training,1-octyl-3-methylimidazolium hexafluorophosphate,CCCCCCCCN1C=C[N+](=C1)C.F[P-](F)(F)(F)(F)F,C(CCCC)CCCn1c[n+](C)cc1.F[P-](F)(F)(F)(F)F,39,200,524,39
315.1,20.0,0.147,Training,1-octyl-3-methylimidazolium hexafluorophosphate,CCCCCCCCN1C=C[N+](=C1)C.F[P-](F)(F)(F)(F)F,C(CCCCCCC)n1c[n+](cc1)C.F[P-](F)(F)(F)(F)F,39,200,524,39
315.1,20.0,0.147,Training,1-octyl-3-methylimidazolium hexafluorophosphate,CCCCCCCCN1C=C[N+](=C1)C.F[P-](F)(F)(F)(F)F,C(CCCCC)CCn1c[n+](C)cc1.F[P-](F)(F)(F)(F)F,39,200,524,39
315.1,20.0,0.147,Training,1-octyl-3-methylimidazolium hexafluorophosphate,CCCCCCCCN1C=C[N+](=C1)C.F[P-](F)(F)(F)(F)F,C(CCCCC)CCn1cc[n+](C)c1.F[P-](F)(F)(F)(F)F,39,200,524,39
315.1,20.0,0.147,Training,1-octyl-3-methylimidazolium hexafluorophosphate,CCCCCCCCN1C=C[N+](=C1)C.F[P-](F)(F)(F)(F)F,F[P-](F)(F)(F)(F)F.c1c[n+](C)cn1CCCCCCCC,39,200,524,39
335.2,0.1,0.144,Training,1-octyl-3-methylimidazolium hexafluorophosphate,CCCCCCCCN1C=C[N+](=C1)C.F[P-](F)(F)(F)(F)F,CCCCCCCCn1cc[n+](C)c1.F[P-](F)(F)(F)(F)F,39,1,525,39
335.2,0.1,0.144,Training,1-octyl-3-methylimidazolium hexafluorophosphate,CCCCCCCCN1C=C[N+](=C1)C.F[P-](F)(F)(F)(F)F,[P-](F)(F)(F)(F)(F)F.n1(cc[n+](c1)C)CCCCCCCC,39,1,525,39
335.2,0.1,0.144,Training,1-octyl-3-methylimidazolium hexafluorophosphate,CCCCCCCCN1C=C[N+](=C1)C.F[P-](F)(F)(F)(F)F,F[P-](F)(F)(F)(F)F.c1c[n+](C)cn1CCCCCCCC,39,1,525,39
335.2,0.1,0.144,Training,1-octyl-3-methylimidazolium hexafluorophosphate,CCCCCCCCN1C=C[N+](=C1)C.F[P-](F)(F)(F)(F)F,F[P-](F)(F)(F)(F)F.n1(CCCCCCCC)cc[n+](c1)C,39,1,525,39
335.2,0.1,0.144,Training,1-octyl-3-methylimidazolium hexafluorophosphate,CCCCCCCCN1C=C[N+](=C1)C.F[P-](F)(F)(F)(F)F,C[n+]1ccn(CCCCCCCC)c1.F[P-](F)(F)(F)(F)F,39,1,525,39
335.2,0.1,0.144,Training,1-octyl-3-methylimidazolium hexafluorophosphate,CCCCCCCCN1C=C[N+](=C1)C.F[P-](F)(F)(F)(F)F,C(CCCCn1c[n+](C)cc1)CCC.[P-](F)(F)(F)(F)(F)F,39,1,525,39
335.2,0.1,0.144,Training,1-octyl-3-methylimidazolium hexafluorophosphate,CCCCCCCCN1C=C[N+](=C1)C.F[P-](F)(F)(F)(F)F,C[n+]1cn(CCCCCCCC)cc1.F[P-](F)(F)(F)(F)F,39,1,525,39
335.2,0.1,0.144,Training,1-octyl-3-methylimidazolium hexafluorophosphate,CCCCCCCCN1C=C[N+](=C1)C.F[P-](F)(F)(F)(F)F,C(CCCn1c[n+](C)cc1)CCCC.F[P-](F)(F)(F)(F)F,39,1,525,39
335.2,0.1,0.144,Training,1-octyl-3-methylimidazolium hexafluorophosphate,CCCCCCCCN1C=C[N+](=C1)C.F[P-](F)(F)(F)(F)F,F[P-](F)(F)(F)(F)F.c1c[n+](cn1CCCCCCCC)C,39,1,525,39
335.2,0.1,0.144,Training,1-octyl-3-methylimidazolium hexafluorophosphate,CCCCCCCCN1C=C[N+](=C1)C.F[P-](F)(F)(F)(F)F,CCCCCCCCn1cc[n+](c1)C.F[P-](F)(F)(F)(F)F,39,1,525,39
335.2,10.0,0.146,Training,1-octyl-3-methylimidazolium hexafluorophosphate,CCCCCCCCN1C=C[N+](=C1)C.F[P-](F)(F)(F)(F)F,CCCCCCCCn1cc[n+](C)c1.F[P-](F)(F)(F)(F)F,39,100,526,39
335.2,10.0,0.146,Training,1-octyl-3-methylimidazolium hexafluorophosphate,CCCCCCCCN1C=C[N+](=C1)C.F[P-](F)(F)(F)(F)F,F[P-](F)(F)(F)(F)F.c1c[n+](C)cn1CCCCCCCC,39,100,526,39
335.2,10.0,0.146,Training,1-octyl-3-methylimidazolium hexafluorophosphate,CCCCCCCCN1C=C[N+](=C1)C.F[P-](F)(F)(F)(F)F,F[P-](F)(F)(F)(F)F.c1n(c[n+](c1)C)CCCCCCCC,39,100,526,39
335.2,10.0,0.146,Training,1-octyl-3-methylimidazolium hexafluorophosphate,CCCCCCCCN1C=C[N+](=C1)C.F[P-](F)(F)(F)(F)F,C(CCCCC)CCn1c[n+](cc1)C.F[P-](F)(F)(F)(F)F,39,100,526,39
335.2,10.0,0.146,Training,1-octyl-3-methylimidazolium hexafluorophosphate,CCCCCCCCN1C=C[N+](=C1)C.F[P-](F)(F)(F)(F)F,C(CCCCC)CCn1cc[n+](C)c1.F[P-](F)(F)(F)(F)F,39,100,526,39
335.2,10.0,0.146,Training,1-octyl-3-methylimidazolium hexafluorophosphate,CCCCCCCCN1C=C[N+](=C1)C.F[P-](F)(F)(F)(F)F,C(C)CCCCCCn1c[n+](C)cc1.[P-](F)(F)(F)(F)(F)F,39,100,526,39
335.2,10.0,0.146,Training,1-octyl-3-methylimidazolium hexafluorophosphate,CCCCCCCCN1C=C[N+](=C1)C.F[P-](F)(F)(F)(F)F,C(CCCCCCn1cc[n+](C)c1)C.F[P-](F)(F)(F)(F)F,39,100,526,39
335.2,10.0,0.146,Training,1-octyl-3-methylimidazolium hexafluorophosphate,CCCCCCCCN1C=C[N+](=C1)C.F[P-](F)(F)(F)(F)F,F[P-](F)(F)(F)(F)F.n1(CCCCCCCC)c[n+](C)cc1,39,100,526,39
335.2,10.0,0.146,Training,1-octyl-3-methylimidazolium hexafluorophosphate,CCCCCCCCN1C=C[N+](=C1)C.F[P-](F)(F)(F)(F)F,CCCCCCCCn1c[n+](C)cc1.[P-](F)(F)(F)(F)(F)F,39,100,526,39
335.2,10.0,0.146,Training,1-octyl-3-methylimidazolium hexafluorophosphate,CCCCCCCCN1C=C[N+](=C1)C.F[P-](F)(F)(F)(F)F,F[P-](F)(F)(F)(F)F.n1(CCCCCCCC)c[n+](cc1)C,39,100,526,39
335.2,20.0,0.147,Testing,1-octyl-3-methylimidazolium hexafluorophosphate,CCCCCCCCN1C=C[N+](=C1)C.F[P-](F)(F)(F)(F)F,CCCCCCCCn1cc[n+](C)c1.F[P-](F)(F)(F)(F)F,39,200,527,39
335.2,20.0,0.147,Testing,1-octyl-3-methylimidazolium hexafluorophosphate,CCCCCCCCN1C=C[N+](=C1)C.F[P-](F)(F)(F)(F)F,C(CCC)CCCCn1c[n+](C)cc1.F[P-](F)(F)(F)(F)F,39,200,527,39
335.2,20.0,0.147,Testing,1-octyl-3-methylimidazolium hexafluorophosphate,CCCCCCCCN1C=C[N+](=C1)C.F[P-](F)(F)(F)(F)F,C(CCCCCC)Cn1cc[n+](C)c1.F[P-](F)(F)(F)(F)F,39,200,527,39
335.2,20.0,0.147,Testing,1-octyl-3-methylimidazolium hexafluorophosphate,CCCCCCCCN1C=C[N+](=C1)C.F[P-](F)(F)(F)(F)F,C[n+]1cn(CCCCCCCC)cc1.F[P-](F)(F)(F)(F)F,39,200,527,39
335.2,20.0,0.147,Testing,1-octyl-3-methylimidazolium hexafluorophosphate,CCCCCCCCN1C=C[N+](=C1)C.F[P-](F)(F)(F)(F)F,F[P-](F)(F)(F)(F)F.n1(c[n+](cc1)C)CCCCCCCC,39,200,527,39
335.2,20.0,0.147,Testing,1-octyl-3-methylimidazolium hexafluorophosphate,CCCCCCCCN1C=C[N+](=C1)C.F[P-](F)(F)(F)(F)F,C(CCCCCCn1cc[n+](c1)C)C.F[P-](F)(F)(F)(F)F,39,200,527,39
335.2,20.0,0.147,Testing,1-octyl-3-methylimidazolium hexafluorophosphate,CCCCCCCCN1C=C[N+](=C1)C.F[P-](F)(F)(F)(F)F,C(CCCn1c[n+](C)cc1)CCCC.[P-](F)(F)(F)(F)(F)F,39,200,527,39
335.2,20.0,0.147,Testing,1-octyl-3-methylimidazolium hexafluorophosphate,CCCCCCCCN1C=C[N+](=C1)C.F[P-](F)(F)(F)(F)F,F[P-](F)(F)(F)(F)F.c1n(c[n+](C)c1)CCCCCCCC,39,200,527,39
335.2,20.0,0.147,Testing,1-octyl-3-methylimidazolium hexafluorophosphate,CCCCCCCCN1C=C[N+](=C1)C.F[P-](F)(F)(F)(F)F,F[P-](F)(F)(F)(F)F.c1n(CCCCCCCC)cc[n+]1C,39,200,527,39
335.2,20.0,0.147,Testing,1-octyl-3-methylimidazolium hexafluorophosphate,CCCCCCCCN1C=C[N+](=C1)C.F[P-](F)(F)(F)(F)F,C(CCn1c[n+](cc1)C)CCCCC.F[P-](F)(F)(F)(F)F,39,200,527,39
279.07,0.1,0.118,Training,1-propyl-1-methylpyrrolidinium bis(trifluoromethylsulfonyl)imide,CCC[N+]1(CCCC1)C.C(F)(F)(F)S(=O)(=O)[N-]S(=O)(=O)C(F)(F)F,CCC[N+]1(C)CCCC1.O=S(=O)([N-]S(=O)(=O)C(F)(F)F)C(F)(F)F,40,1,528,40
279.07,0.1,0.118,Training,1-propyl-1-methylpyrrolidinium bis(trifluoromethylsulfonyl)imide,CCC[N+]1(CCCC1)C.C(F)(F)(F)S(=O)(=O)[N-]S(=O)(=O)C(F)(F)F,C(S([N-]S(=O)(=O)C(F)(F)F)(=O)=O)(F)(F)F.C1CC[N+](C)(CCC)C1,40,1,528,40
279.07,0.1,0.118,Training,1-propyl-1-methylpyrrolidinium bis(trifluoromethylsulfonyl)imide,CCC[N+]1(CCCC1)C.C(F)(F)(F)S(=O)(=O)[N-]S(=O)(=O)C(F)(F)F,C(C)C[N+]1(CCCC1)C.O=S([N-]S(C(F)(F)F)(=O)=O)(C(F)(F)F)=O,40,1,528,40
279.07,0.1,0.118,Training,1-propyl-1-methylpyrrolidinium bis(trifluoromethylsulfonyl)imide,CCC[N+]1(CCCC1)C.C(F)(F)(F)S(=O)(=O)[N-]S(=O)(=O)C(F)(F)F,C(S(=O)(=O)[N-]S(=O)(=O)C(F)(F)F)(F)(F)F.C1CCC[N+]1(C)CCC,40,1,528,40
279.07,0.1,0.118,Training,1-propyl-1-methylpyrrolidinium bis(trifluoromethylsulfonyl)imide,CCC[N+]1(CCCC1)C.C(F)(F)(F)S(=O)(=O)[N-]S(=O)(=O)C(F)(F)F,C[N+]1(CCC)CCCC1.O=S(=O)(C(F)(F)F)[N-]S(C(F)(F)F)(=O)=O,40,1,528,40
279.07,0.1,0.118,Training,1-propyl-1-methylpyrrolidinium bis(trifluoromethylsulfonyl)imide,CCC[N+]1(CCCC1)C.C(F)(F)(F)S(=O)(=O)[N-]S(=O)(=O)C(F)(F)F,C(S(=O)([N-]S(=O)(=O)C(F)(F)F)=O)(F)(F)F.C1CC[N+](CCC)(C)C1,40,1,528,40
279.07,0.1,0.118,Training,1-propyl-1-methylpyrrolidinium bis(trifluoromethylsulfonyl)imide,CCC[N+]1(CCCC1)C.C(F)(F)(F)S(=O)(=O)[N-]S(=O)(=O)C(F)(F)F,C(C[N+]1(C)CCCC1)C.FC(S(=O)([N-]S(=O)(C(F)(F)F)=O)=O)(F)F,40,1,528,40
279.07,0.1,0.118,Training,1-propyl-1-methylpyrrolidinium bis(trifluoromethylsulfonyl)imide,CCC[N+]1(CCCC1)C.C(F)(F)(F)S(=O)(=O)[N-]S(=O)(=O)C(F)(F)F,C[N+]1(CCC)CCCC1.FC(S(=O)([N-]S(=O)(C(F)(F)F)=O)=O)(F)F,40,1,528,40
279.07,0.1,0.118,Training,1-propyl-1-methylpyrrolidinium bis(trifluoromethylsulfonyl)imide,CCC[N+]1(CCCC1)C.C(F)(F)(F)S(=O)(=O)[N-]S(=O)(=O)C(F)(F)F,C1C[N+](CCC)(CC1)C.[N-](S(=O)(C(F)(F)F)=O)S(=O)(=O)C(F)(F)F,40,1,528,40
279.07,0.1,0.118,Training,1-propyl-1-methylpyrrolidinium bis(trifluoromethylsulfonyl)imide,CCC[N+]1(CCCC1)C.C(F)(F)(F)S(=O)(=O)[N-]S(=O)(=O)C(F)(F)F,C(C)C[N+]1(CCCC1)C.O=S([N-]S(=O)(=O)C(F)(F)F)(C(F)(F)F)=O,40,1,528,40
300.88,0.1,0.1176,Training,1-propyl-1-methylpyrrolidinium bis(trifluoromethylsulfonyl)imide,CCC[N+]1(CCCC1)C.C(F)(F)(F)S(=O)(=O)[N-]S(=O)(=O)C(F)(F)F,CCC[N+]1(C)CCCC1.O=S(=O)([N-]S(=O)(=O)C(F)(F)F)C(F)(F)F,40,1,529,40
300.88,0.1,0.1176,Training,1-propyl-1-methylpyrrolidinium bis(trifluoromethylsulfonyl)imide,CCC[N+]1(CCCC1)C.C(F)(F)(F)S(=O)(=O)[N-]S(=O)(=O)C(F)(F)F,C1CC[N+](C)(C1)CCC.O=S([N-]S(C(F)(F)F)(=O)=O)(C(F)(F)F)=O,40,1,529,40
300.88,0.1,0.1176,Training,1-propyl-1-methylpyrrolidinium bis(trifluoromethylsulfonyl)imide,CCC[N+]1(CCCC1)C.C(F)(F)(F)S(=O)(=O)[N-]S(=O)(=O)C(F)(F)F,C(S(=O)(=O)[N-]S(=O)(=O)C(F)(F)F)(F)(F)F.C1C[N+](CCC)(C)CC1,40,1,529,40
300.88,0.1,0.1176,Training,1-propyl-1-methylpyrrolidinium bis(trifluoromethylsulfonyl)imide,CCC[N+]1(CCCC1)C.C(F)(F)(F)S(=O)(=O)[N-]S(=O)(=O)C(F)(F)F,O=S(=O)(C(F)(F)F)[N-]S(=O)(=O)C(F)(F)F.[N+]1(CCCC1)(CCC)C,40,1,529,40
300.88,0.1,0.1176,Training,1-propyl-1-methylpyrrolidinium bis(trifluoromethylsulfonyl)imide,CCC[N+]1(CCCC1)C.C(F)(F)(F)S(=O)(=O)[N-]S(=O)(=O)C(F)(F)F,C(F)(F)(S(=O)([N-]S(C(F)(F)F)(=O)=O)=O)F.[N+]1(C)(CCCC1)CCC,40,1,529,40
300.88,0.1,0.1176,Training,1-propyl-1-methylpyrrolidinium bis(trifluoromethylsulfonyl)imide,CCC[N+]1(CCCC1)C.C(F)(F)(F)S(=O)(=O)[N-]S(=O)(=O)C(F)(F)F,C1CCC[N+]1(C)CCC.FC(F)(F)S([N-]S(=O)(=O)C(F)(F)F)(=O)=O,40,1,529,40
300.88,0.1,0.1176,Training,1-propyl-1-methylpyrrolidinium bis(trifluoromethylsulfonyl)imide,CCC[N+]1(CCCC1)C.C(F)(F)(F)S(=O)(=O)[N-]S(=O)(=O)C(F)(F)F,C(C[N+]1(C)CCCC1)C.C(F)(S([N-]S(C(F)(F)F)(=O)=O)(=O)=O)(F)F,40,1,529,40
300.88,0.1,0.1176,Training,1-propyl-1-methylpyrrolidinium bis(trifluoromethylsulfonyl)imide,CCC[N+]1(CCCC1)C.C(F)(F)(F)S(=O)(=O)[N-]S(=O)(=O)C(F)(F)F,C[N+]1(CCC)CCCC1.FC(S(=O)(=O)[N-]S(C(F)(F)F)(=O)=O)(F)F,40,1,529,40
300.88,0.1,0.1176,Training,1-propyl-1-methylpyrrolidinium bis(trifluoromethylsulfonyl)imide,CCC[N+]1(CCCC1)C.C(F)(F)(F)S(=O)(=O)[N-]S(=O)(=O)C(F)(F)F,C(F)(F)(F)S(=O)([N-]S(C(F)(F)F)(=O)=O)=O.C1C[N+](C)(CCC)CC1,40,1,529,40
300.88,0.1,0.1176,Training,1-propyl-1-methylpyrrolidinium bis(trifluoromethylsulfonyl)imide,CCC[N+]1(CCCC1)C.C(F)(F)(F)S(=O)(=O)[N-]S(=O)(=O)C(F)(F)F,C1C[N+](CCC)(C)CC1.O=S(=O)([N-]S(C(F)(F)F)(=O)=O)C(F)(F)F,40,1,529,40
318.32,0.1,0.1174,Testing,1-propyl-1-methylpyrrolidinium bis(trifluoromethylsulfonyl)imide,CCC[N+]1(CCCC1)C.C(F)(F)(F)S(=O)(=O)[N-]S(=O)(=O)C(F)(F)F,CCC[N+]1(C)CCCC1.O=S(=O)([N-]S(=O)(=O)C(F)(F)F)C(F)(F)F,40,1,530,40
318.32,0.1,0.1174,Testing,1-propyl-1-methylpyrrolidinium bis(trifluoromethylsulfonyl)imide,CCC[N+]1(CCCC1)C.C(F)(F)(F)S(=O)(=O)[N-]S(=O)(=O)C(F)(F)F,C1CCC[N+]1(CCC)C.O=S([N-]S(=O)(=O)C(F)(F)F)(C(F)(F)F)=O,40,1,530,40
318.32,0.1,0.1174,Testing,1-propyl-1-methylpyrrolidinium bis(trifluoromethylsulfonyl)imide,CCC[N+]1(CCCC1)C.C(F)(F)(F)S(=O)(=O)[N-]S(=O)(=O)C(F)(F)F,C([N+]1(CCCC1)C)CC.FC(F)(S([N-]S(C(F)(F)F)(=O)=O)(=O)=O)F,40,1,530,40
318.32,0.1,0.1174,Testing,1-propyl-1-methylpyrrolidinium bis(trifluoromethylsulfonyl)imide,CCC[N+]1(CCCC1)C.C(F)(F)(F)S(=O)(=O)[N-]S(=O)(=O)C(F)(F)F,C1[N+](CCC1)(CCC)C.O=S(C(F)(F)F)(=O)[N-]S(=O)(C(F)(F)F)=O,40,1,530,40
318.32,0.1,0.1174,Testing,1-propyl-1-methylpyrrolidinium bis(trifluoromethylsulfonyl)imide,CCC[N+]1(CCCC1)C.C(F)(F)(F)S(=O)(=O)[N-]S(=O)(=O)C(F)(F)F,C[N+]1(CCCC1)CCC.FC(F)(S([N-]S(=O)(=O)C(F)(F)F)(=O)=O)F,40,1,530,40
318.32,0.1,0.1174,Testing,1-propyl-1-methylpyrrolidinium bis(trifluoromethylsulfonyl)imide,CCC[N+]1(CCCC1)C.C(F)(F)(F)S(=O)(=O)[N-]S(=O)(=O)C(F)(F)F,C(C[N+]1(CCCC1)C)C.[N-](S(C(F)(F)F)(=O)=O)S(=O)(=O)C(F)(F)F,40,1,530,40