T/K,P/MPa,TC/W m-1 K-1,Data type,Name,SMILES,Normalized SMILES,index,P/bar,RANDOM,IL
294.2,20.0,0.167,Testing,1-octyl-3-methylimidazolium tetrafluoroborate,[B-](F)(F)(F)F.CCCCCCCCN1C=C[N+](=C1)C,C[n+]1cn(CCCCCCCC)cc1.F[B-](F)(F)F,38,200,494,38
294.2,20.0,0.167,Testing,1-octyl-3-methylimidazolium tetrafluoroborate,[B-](F)(F)(F)F.CCCCCCCCN1C=C[N+](=C1)C,C(CCCCC)CCn1cc[n+](C)c1.F[B-](F)(F)F,38,200,494,38
314.3,0.1,0.163,Training,1-octyl-3-methylimidazolium tetrafluoroborate,[B-](F)(F)(F)F.CCCCCCCCN1C=C[N+](=C1)C,CCCCCCCCn1cc[n+](C)c1.F[B-](F)(F)F,38,1,495,38
314.3,0.1,0.163,Training,1-octyl-3-methylimidazolium tetrafluoroborate,[B-](F)(F)(F)F.CCCCCCCCN1C=C[N+](=C1)C,C(CCCCCCC)n1c[n+](cc1)C.F[B-](F)(F)F,38,1,495,38
314.3,0.1,0.163,Training,1-octyl-3-methylimidazolium tetrafluoroborate,[B-](F)(F)(F)F.CCCCCCCCN1C=C[N+](=C1)C,C(CCCCCCC)n1c[n+](cc1)C.[B-](F)(F)(F)F,38,1,495,38
314.3,0.1,0.163,Training,1-octyl-3-methylimidazolium tetrafluoroborate,[B-](F)(F)(F)F.CCCCCCCCN1C=C[N+](=C1)C,C(Cn1c[n+](cc1)C)CCCCCC.F[B-](F)(F)F,38,1,495,38
314.3,0.1,0.163,Training,1-octyl-3-methylimidazolium tetrafluoroborate,[B-](F)(F)(F)F.CCCCCCCCN1C=C[N+](=C1)C,C(CCCn1c[n+](cc1)C)CCCC.F[B-](F)(F)F,38,1,495,38
314.3,0.1,0.163,Training,1-octyl-3-methylimidazolium tetrafluoroborate,[B-](F)(F)(F)F.CCCCCCCCN1C=C[N+](=C1)C,C[n+]1cn(CCCCCCCC)cc1.F[B-](F)(F)F,38,1,495,38
314.3,0.1,0.163,Training,1-octyl-3-methylimidazolium tetrafluoroborate,[B-](F)(F)(F)F.CCCCCCCCN1C=C[N+](=C1)C,CCCCCCCCn1cc[n+](c1)C.F[B-](F)(F)F,38,1,495,38
314.3,0.1,0.163,Training,1-octyl-3-methylimidazolium tetrafluoroborate,[B-](F)(F)(F)F.CCCCCCCCN1C=C[N+](=C1)C,C(CCC)CCCCn1c[n+](cc1)C.F[B-](F)(F)F,38,1,495,38
314.3,0.1,0.163,Training,1-octyl-3-methylimidazolium tetrafluoroborate,[B-](F)(F)(F)F.CCCCCCCCN1C=C[N+](=C1)C,F[B-](F)(F)F.[n+]1(cn(cc1)CCCCCCCC)C,38,1,495,38
314.3,0.1,0.163,Training,1-octyl-3-methylimidazolium tetrafluoroborate,[B-](F)(F)(F)F.CCCCCCCCN1C=C[N+](=C1)C,C(CCn1cc[n+](C)c1)CCCCC.F[B-](F)(F)F,38,1,495,38
314.3,10.0,0.164,Testing,1-octyl-3-methylimidazolium tetrafluoroborate,[B-](F)(F)(F)F.CCCCCCCCN1C=C[N+](=C1)C,CCCCCCCCn1cc[n+](C)c1.F[B-](F)(F)F,38,100,496,38
314.3,10.0,0.164,Testing,1-octyl-3-methylimidazolium tetrafluoroborate,[B-](F)(F)(F)F.CCCCCCCCN1C=C[N+](=C1)C,C(CC)CCCCCn1c[n+](C)cc1.F[B-](F)(F)F,38,100,496,38
314.3,10.0,0.164,Testing,1-octyl-3-methylimidazolium tetrafluoroborate,[B-](F)(F)(F)F.CCCCCCCCN1C=C[N+](=C1)C,F[B-](F)(F)F.c1n(CCCCCCCC)cc[n+]1C,38,100,496,38
314.3,10.0,0.164,Testing,1-octyl-3-methylimidazolium tetrafluoroborate,[B-](F)(F)(F)F.CCCCCCCCN1C=C[N+](=C1)C,C(CCCCCCn1c[n+](cc1)C)C.F[B-](F)(F)F,38,100,496,38
314.3,10.0,0.164,Testing,1-octyl-3-methylimidazolium tetrafluoroborate,[B-](F)(F)(F)F.CCCCCCCCN1C=C[N+](=C1)C,C(CCC)CCCCn1cc[n+](C)c1.F[B-](F)(F)F,38,100,496,38
314.3,10.0,0.164,Testing,1-octyl-3-methylimidazolium tetrafluoroborate,[B-](F)(F)(F)F.CCCCCCCCN1C=C[N+](=C1)C,F[B-](F)(F)F.n1(CCCCCCCC)c[n+](cc1)C,38,100,496,38
314.3,10.0,0.164,Testing,1-octyl-3-methylimidazolium tetrafluoroborate,[B-](F)(F)(F)F.CCCCCCCCN1C=C[N+](=C1)C,F[B-](F)(F)F.[n+]1(cn(cc1)CCCCCCCC)C,38,100,496,38
314.3,10.0,0.164,Testing,1-octyl-3-methylimidazolium tetrafluoroborate,[B-](F)(F)(F)F.CCCCCCCCN1C=C[N+](=C1)C,F[B-](F)(F)F.[n+]1(C)ccn(CCCCCCCC)c1,38,100,496,38
314.3,10.0,0.164,Testing,1-octyl-3-methylimidazolium tetrafluoroborate,[B-](F)(F)(F)F.CCCCCCCCN1C=C[N+](=C1)C,C(CCCCCCC)n1c[n+](C)cc1.F[B-](F)(F)F,38,100,496,38
314.3,10.0,0.164,Testing,1-octyl-3-methylimidazolium tetrafluoroborate,[B-](F)(F)(F)F.CCCCCCCCN1C=C[N+](=C1)C,F[B-](F)(F)F.c1cn(CCCCCCCC)c[n+]1C,38,100,496,38
314.3,20.0,0.166,Training,1-octyl-3-methylimidazolium tetrafluoroborate,[B-](F)(F)(F)F.CCCCCCCCN1C=C[N+](=C1)C,CCCCCCCCn1cc[n+](C)c1.F[B-](F)(F)F,38,200,497,38
314.3,20.0,0.166,Training,1-octyl-3-methylimidazolium tetrafluoroborate,[B-](F)(F)(F)F.CCCCCCCCN1C=C[N+](=C1)C,C(CCCCn1c[n+](cc1)C)CCC.F[B-](F)(F)F,38,200,497,38
314.3,20.0,0.166,Training,1-octyl-3-methylimidazolium tetrafluoroborate,[B-](F)(F)(F)F.CCCCCCCCN1C=C[N+](=C1)C,C(CCC)CCCCn1c[n+](C)cc1.F[B-](F)(F)F,38,200,497,38
314.3,20.0,0.166,Training,1-octyl-3-methylimidazolium tetrafluoroborate,[B-](F)(F)(F)F.CCCCCCCCN1C=C[N+](=C1)C,F[B-](F)(F)F.c1c[n+](cn1CCCCCCCC)C,38,200,497,38
314.3,20.0,0.166,Training,1-octyl-3-methylimidazolium tetrafluoroborate,[B-](F)(F)(F)F.CCCCCCCCN1C=C[N+](=C1)C,C(CCn1c[n+](cc1)C)CCCCC.F[B-](F)(F)F,38,200,497,38
314.3,20.0,0.166,Training,1-octyl-3-methylimidazolium tetrafluoroborate,[B-](F)(F)(F)F.CCCCCCCCN1C=C[N+](=C1)C,F[B-](F)(F)F.[n+]1(C)cn(CCCCCCCC)cc1,38,200,497,38
314.3,20.0,0.166,Training,1-octyl-3-methylimidazolium tetrafluoroborate,[B-](F)(F)(F)F.CCCCCCCCN1C=C[N+](=C1)C,C(CCCCCn1c[n+](C)cc1)CC.F[B-](F)(F)F,38,200,497,38
314.3,20.0,0.166,Training,1-octyl-3-methylimidazolium tetrafluoroborate,[B-](F)(F)(F)F.CCCCCCCCN1C=C[N+](=C1)C,F[B-](F)(F)F.[n+]1(C)ccn(CCCCCCCC)c1,38,200,497,38
314.3,20.0,0.166,Training,1-octyl-3-methylimidazolium tetrafluoroborate,[B-](F)(F)(F)F.CCCCCCCCN1C=C[N+](=C1)C,CCCCCCCCn1c[n+](C)cc1.[B-](F)(F)(F)F,38,200,497,38
334.3,0.1,0.16,Training,1-octyl-3-methylimidazolium tetrafluoroborate,[B-](F)(F)(F)F.CCCCCCCCN1C=C[N+](=C1)C,CCCCCCCCn1cc[n+](C)c1.F[B-](F)(F)F,38,1,498,38
334.3,0.1,0.16,Training,1-octyl-3-methylimidazolium tetrafluoroborate,[B-](F)(F)(F)F.CCCCCCCCN1C=C[N+](=C1)C,C[n+]1cn(cc1)CCCCCCCC.F[B-](F)(F)F,38,1,498,38
334.3,0.1,0.16,Training,1-octyl-3-methylimidazolium tetrafluoroborate,[B-](F)(F)(F)F.CCCCCCCCN1C=C[N+](=C1)C,F[B-](F)(F)F.c1cn(CCCCCCCC)c[n+]1C,38,1,498,38
334.3,0.1,0.16,Training,1-octyl-3-methylimidazolium tetrafluoroborate,[B-](F)(F)(F)F.CCCCCCCCN1C=C[N+](=C1)C,C(CCn1c[n+](C)cc1)CCCCC.F[B-](F)(F)F,38,1,498,38
334.3,0.1,0.16,Training,1-octyl-3-methylimidazolium tetrafluoroborate,[B-](F)(F)(F)F.CCCCCCCCN1C=C[N+](=C1)C,C(CCC)CCCCn1cc[n+](c1)C.[B-](F)(F)(F)F,38,1,498,38
334.3,0.1,0.16,Training,1-octyl-3-methylimidazolium tetrafluoroborate,[B-](F)(F)(F)F.CCCCCCCCN1C=C[N+](=C1)C,C(CCCCCCn1cc[n+](C)c1)C.F[B-](F)(F)F,38,1,498,38
334.3,0.1,0.16,Training,1-octyl-3-methylimidazolium tetrafluoroborate,[B-](F)(F)(F)F.CCCCCCCCN1C=C[N+](=C1)C,C(C)CCCCCCn1c[n+](C)cc1.F[B-](F)(F)F,38,1,498,38
334.3,0.1,0.16,Training,1-octyl-3-methylimidazolium tetrafluoroborate,[B-](F)(F)(F)F.CCCCCCCCN1C=C[N+](=C1)C,C(CCCn1cc[n+](C)c1)CCCC.F[B-](F)(F)F,38,1,498,38
334.3,0.1,0.16,Training,1-octyl-3-methylimidazolium tetrafluoroborate,[B-](F)(F)(F)F.CCCCCCCCN1C=C[N+](=C1)C,C(Cn1c[n+](cc1)C)CCCCCC.F[B-](F)(F)F,38,1,498,38
334.3,0.1,0.16,Training,1-octyl-3-methylimidazolium tetrafluoroborate,[B-](F)(F)(F)F.CCCCCCCCN1C=C[N+](=C1)C,C(CCC)CCCCn1cc[n+](C)c1.F[B-](F)(F)F,38,1,498,38
334.3,10.0,0.162,Training,1-octyl-3-methylimidazolium tetrafluoroborate,[B-](F)(F)(F)F.CCCCCCCCN1C=C[N+](=C1)C,CCCCCCCCn1cc[n+](C)c1.F[B-](F)(F)F,38,100,499,38
334.3,10.0,0.162,Training,1-octyl-3-methylimidazolium tetrafluoroborate,[B-](F)(F)(F)F.CCCCCCCCN1C=C[N+](=C1)C,C(CCCn1c[n+](cc1)C)CCCC.F[B-](F)(F)F,38,100,499,38
334.3,10.0,0.162,Training,1-octyl-3-methylimidazolium tetrafluoroborate,[B-](F)(F)(F)F.CCCCCCCCN1C=C[N+](=C1)C,F[B-](F)(F)F.n1(c[n+](cc1)C)CCCCCCCC,38,100,499,38
334.3,10.0,0.162,Training,1-octyl-3-methylimidazolium tetrafluoroborate,[B-](F)(F)(F)F.CCCCCCCCN1C=C[N+](=C1)C,C(CCC)CCCCn1c[n+](cc1)C.[B-](F)(F)(F)F,38,100,499,38
334.3,10.0,0.162,Training,1-octyl-3-methylimidazolium tetrafluoroborate,[B-](F)(F)(F)F.CCCCCCCCN1C=C[N+](=C1)C,C(CCCCCn1cc[n+](c1)C)CC.F[B-](F)(F)F,38,100,499,38
334.3,10.0,0.162,Training,1-octyl-3-methylimidazolium tetrafluoroborate,[B-](F)(F)(F)F.CCCCCCCCN1C=C[N+](=C1)C,C(CCCCCCn1c[n+](C)cc1)C.F[B-](F)(F)F,38,100,499,38
334.3,10.0,0.162,Training,1-octyl-3-methylimidazolium tetrafluoroborate,[B-](F)(F)(F)F.CCCCCCCCN1C=C[N+](=C1)C,C(CCCCCCC)n1cc[n+](C)c1.F[B-](F)(F)F,38,100,499,38
334.3,10.0,0.162,Training,1-octyl-3-methylimidazolium tetrafluoroborate,[B-](F)(F)(F)F.CCCCCCCCN1C=C[N+](=C1)C,F[B-](F)(F)F.c1n(CCCCCCCC)cc[n+]1C,38,100,499,38
334.3,10.0,0.162,Training,1-octyl-3-methylimidazolium tetrafluoroborate,[B-](F)(F)(F)F.CCCCCCCCN1C=C[N+](=C1)C,F[B-](F)(F)F.c1cn(CCCCCCCC)c[n+]1C,38,100,499,38
334.3,10.0,0.162,Training,1-octyl-3-methylimidazolium tetrafluoroborate,[B-](F)(F)(F)F.CCCCCCCCN1C=C[N+](=C1)C,F[B-](F)(F)F.c1c[n+](C)cn1CCCCCCCC,38,100,499,38
334.3,20.0,0.164,Training,1-octyl-3-methylimidazolium tetrafluoroborate,[B-](F)(F)(F)F.CCCCCCCCN1C=C[N+](=C1)C,CCCCCCCCn1cc[n+](C)c1.F[B-](F)(F)F,38,200,500,38
334.3,20.0,0.164,Training,1-octyl-3-methylimidazolium tetrafluoroborate,[B-](F)(F)(F)F.CCCCCCCCN1C=C[N+](=C1)C,F[B-](F)(F)F.c1cn(CCCCCCCC)c[n+]1C,38,200,500,38
334.3,20.0,0.164,Training,1-octyl-3-methylimidazolium tetrafluoroborate,[B-](F)(F)(F)F.CCCCCCCCN1C=C[N+](=C1)C,C(Cn1c[n+](C)cc1)CCCCCC.F[B-](F)(F)F,38,200,500,38
334.3,20.0,0.164,Training,1-octyl-3-methylimidazolium tetrafluoroborate,[B-](F)(F)(F)F.CCCCCCCCN1C=C[N+](=C1)C,F[B-](F)(F)F.n1(cc[n+](C)c1)CCCCCCCC,38,200,500,38
334.3,20.0,0.164,Training,1-octyl-3-methylimidazolium tetrafluoroborate,[B-](F)(F)(F)F.CCCCCCCCN1C=C[N+](=C1)C,C[n+]1cn(cc1)CCCCCCCC.F[B-](F)(F)F,38,200,500,38
334.3,20.0,0.164,Training,1-octyl-3-methylimidazolium tetrafluoroborate,[B-](F)(F)(F)F.CCCCCCCCN1C=C[N+](=C1)C,F[B-](F)(F)F.n1(c[n+](C)cc1)CCCCCCCC,38,200,500,38
334.3,20.0,0.164,Training,1-octyl-3-methylimidazolium tetrafluoroborate,[B-](F)(F)(F)F.CCCCCCCCN1C=C[N+](=C1)C,C[n+]1cn(CCCCCCCC)cc1.F[B-](F)(F)F,38,200,500,38
334.3,20.0,0.164,Training,1-octyl-3-methylimidazolium tetrafluoroborate,[B-](F)(F)(F)F.CCCCCCCCN1C=C[N+](=C1)C,C(CCCCCn1c[n+](C)cc1)CC.F[B-](F)(F)F,38,200,500,38
334.3,20.0,0.164,Training,1-octyl-3-methylimidazolium tetrafluoroborate,[B-](F)(F)(F)F.CCCCCCCCN1C=C[N+](=C1)C,CCCCCCCCn1c[n+](C)cc1.F[B-](F)(F)F,38,200,500,38
334.3,20.0,0.164,Training,1-octyl-3-methylimidazolium tetrafluoroborate,[B-](F)(F)(F)F.CCCCCCCCN1C=C[N+](=C1)C,F[B-](F)(F)F.[n+]1(C)cn(cc1)CCCCCCCC,38,200,500,38
294.9,0.1,0.145,Testing,1-butyl-3-methylimidazolium hexafluorophosphate,CCCCN1C=C[N+](=C1)C.F[P-](F)(F)(F)(F)F,CCCCn1cc[n+](C)c1.F[P-](F)(F)(F)(F)F,33,1,501,33
294.9,0.1,0.145,Testing,1-butyl-3-methylimidazolium hexafluorophosphate,CCCCN1C=C[N+](=C1)C.F[P-](F)(F)(F)(F)F,F[P-](F)(F)(F)(F)F.[n+]1(C)cn(cc1)CCCC,33,1,501,33
294.9,0.1,0.145,Testing,1-butyl-3-methylimidazolium hexafluorophosphate,CCCCN1C=C[N+](=C1)C.F[P-](F)(F)(F)(F)F,C(CC)Cn1cc[n+](c1)C.F[P-](F)(F)(F)(F)F,33,1,501,33
294.9,0.1,0.145,Testing,1-butyl-3-methylimidazolium hexafluorophosphate,CCCCN1C=C[N+](=C1)C.F[P-](F)(F)(F)(F)F,F[P-](F)(F)(F)(F)F.c1cn(c[n+]1C)CCCC,33,1,501,33
294.9,0.1,0.145,Testing,1-butyl-3-methylimidazolium hexafluorophosphate,CCCCN1C=C[N+](=C1)C.F[P-](F)(F)(F)(F)F,F[P-](F)(F)(F)(F)F.n1(CCCC)c[n+](C)cc1,33,1,501,33
294.9,0.1,0.145,Testing,1-butyl-3-methylimidazolium hexafluorophosphate,CCCCN1C=C[N+](=C1)C.F[P-](F)(F)(F)(F)F,C[n+]1cn(cc1)CCCC.F[P-](F)(F)(F)(F)F,33,1,501,33
294.9,0.1,0.145,Testing,1-butyl-3-methylimidazolium hexafluorophosphate,CCCCN1C=C[N+](=C1)C.F[P-](F)(F)(F)(F)F,C(C)CCn1c[n+](cc1)C.F[P-](F)(F)(F)(F)F,33,1,501,33
294.9,0.1,0.145,Testing,1-butyl-3-methylimidazolium hexafluorophosphate,CCCCN1C=C[N+](=C1)C.F[P-](F)(F)(F)(F)F,C(n1c[n+](C)cc1)CCC.F[P-](F)(F)(F)(F)F,33,1,501,33
294.9,0.1,0.145,Testing,1-butyl-3-methylimidazolium hexafluorophosphate,CCCCN1C=C[N+](=C1)C.F[P-](F)(F)(F)(F)F,CCCCn1c[n+](C)cc1.F[P-](F)(F)(F)(F)F,33,1,501,33
294.9,0.1,0.145,Testing,1-butyl-3-methylimidazolium hexafluorophosphate,CCCCN1C=C[N+](=C1)C.F[P-](F)(F)(F)(F)F,C(CC)Cn1cc[n+](C)c1.[P-](F)(F)(F)(F)(F)F,33,1,501,33
294.9,10.0,0.146,Training,1-butyl-3-methylimidazolium hexafluorophosphate,CCCCN1C=C[N+](=C1)C.F[P-](F)(F)(F)(F)F,CCCCn1cc[n+](C)c1.F[P-](F)(F)(F)(F)F,33,100,502,33
294.9,10.0,0.146,Training,1-butyl-3-methylimidazolium hexafluorophosphate,CCCCN1C=C[N+](=C1)C.F[P-](F)(F)(F)(F)F,F[P-](F)(F)(F)(F)F.[n+]1(ccn(c1)CCCC)C,33,100,502,33
294.9,10.0,0.146,Training,1-butyl-3-methylimidazolium hexafluorophosphate,CCCCN1C=C[N+](=C1)C.F[P-](F)(F)(F)(F)F,F[P-](F)(F)(F)(F)F.n1(CCCC)cc[n+](c1)C,33,100,502,33
294.9,10.0,0.146,Training,1-butyl-3-methylimidazolium hexafluorophosphate,CCCCN1C=C[N+](=C1)C.F[P-](F)(F)(F)(F)F,F[P-](F)(F)(F)(F)F.c1[n+](cn(c1)CCCC)C,33,100,502,33
294.9,10.0,0.146,Training,1-butyl-3-methylimidazolium hexafluorophosphate,CCCCN1C=C[N+](=C1)C.F[P-](F)(F)(F)(F)F,F[P-](F)(F)(F)(F)F.[n+]1(C)cn(cc1)CCCC,33,100,502,33
294.9,10.0,0.146,Training,1-butyl-3-methylimidazolium hexafluorophosphate,CCCCN1C=C[N+](=C1)C.F[P-](F)(F)(F)(F)F,CCCCn1c[n+](cc1)C.F[P-](F)(F)(F)(F)F,33,100,502,33
294.9,10.0,0.146,Training,1-butyl-3-methylimidazolium hexafluorophosphate,CCCCN1C=C[N+](=C1)C.F[P-](F)(F)(F)(F)F,C[n+]1cn(cc1)CCCC.F[P-](F)(F)(F)(F)F,33,100,502,33
294.9,10.0,0.146,Training,1-butyl-3-methylimidazolium hexafluorophosphate,CCCCN1C=C[N+](=C1)C.F[P-](F)(F)(F)(F)F,F[P-](F)(F)(F)(F)F.c1n(c[n+](C)c1)CCCC,33,100,502,33
294.9,10.0,0.146,Training,1-butyl-3-methylimidazolium hexafluorophosphate,CCCCN1C=C[N+](=C1)C.F[P-](F)(F)(F)(F)F,C(CC)Cn1c[n+](C)cc1.F[P-](F)(F)(F)(F)F,33,100,502,33
294.9,10.0,0.146,Training,1-butyl-3-methylimidazolium hexafluorophosphate,CCCCN1C=C[N+](=C1)C.F[P-](F)(F)(F)(F)F,[P-](F)(F)(F)(F)(F)F.n1(cc[n+](C)c1)CCCC,33,100,502,33
294.9,20.0,0.148,Training,1-butyl-3-methylimidazolium hexafluorophosphate,CCCCN1C=C[N+](=C1)C.F[P-](F)(F)(F)(F)F,CCCCn1cc[n+](C)c1.F[P-](F)(F)(F)(F)F,33,200,503,33
294.9,20.0,0.148,Training,1-butyl-3-methylimidazolium hexafluorophosphate,CCCCN1C=C[N+](=C1)C.F[P-](F)(F)(F)(F)F,C[n+]1ccn(c1)CCCC.F[P-](F)(F)(F)(F)F,33,200,503,33
294.9,20.0,0.148,Training,1-butyl-3-methylimidazolium hexafluorophosphate,CCCCN1C=C[N+](=C1)C.F[P-](F)(F)(F)(F)F,F[P-](F)(F)(F)(F)F.n1(CCCC)cc[n+](c1)C,33,200,503,33
294.9,20.0,0.148,Training,1-butyl-3-methylimidazolium hexafluorophosphate,CCCCN1C=C[N+](=C1)C.F[P-](F)(F)(F)(F)F,F[P-](F)(F)(F)(F)F.[n+]1(C)cn(CCCC)cc1,33,200,503,33
294.9,20.0,0.148,Training,1-butyl-3-methylimidazolium hexafluorophosphate,CCCCN1C=C[N+](=C1)C.F[P-](F)(F)(F)(F)F,[P-](F)(F)(F)(F)(F)F.c1c[n+](C)cn1CCCC,33,200,503,33
294.9,20.0,0.148,Training,1-butyl-3-methylimidazolium hexafluorophosphate,CCCCN1C=C[N+](=C1)C.F[P-](F)(F)(F)(F)F,C(C)CCn1c[n+](cc1)C.F[P-](F)(F)(F)(F)F,33,200,503,33
294.9,20.0,0.148,Training,1-butyl-3-methylimidazolium hexafluorophosphate,CCCCN1C=C[N+](=C1)C.F[P-](F)(F)(F)(F)F,F[P-](F)(F)(F)(F)F.c1c[n+](C)cn1CCCC,33,200,503,33
294.9,20.0,0.148,Training,1-butyl-3-methylimidazolium hexafluorophosphate,CCCCN1C=C[N+](=C1)C.F[P-](F)(F)(F)(F)F,[P-](F)(F)(F)(F)(F)F.c1cn(c[n+]1C)CCCC,33,200,503,33
294.9,20.0,0.148,Training,1-butyl-3-methylimidazolium hexafluorophosphate,CCCCN1C=C[N+](=C1)C.F[P-](F)(F)(F)(F)F,F[P-](F)(F)(F)(F)F.n1(CCCC)c[n+](C)cc1,33,200,503,33
315.0,0.1,0.145,Training,1-butyl-3-methylimidazolium hexafluorophosphate,CCCCN1C=C[N+](=C1)C.F[P-](F)(F)(F)(F)F,CCCCn1cc[n+](C)c1.F[P-](F)(F)(F)(F)F,33,1,504,33
315.0,0.1,0.145,Training,1-butyl-3-methylimidazolium hexafluorophosphate,CCCCN1C=C[N+](=C1)C.F[P-](F)(F)(F)(F)F,C[n+]1cn(CCCC)cc1.F[P-](F)(F)(F)(F)F,33,1,504,33
315.0,0.1,0.145,Training,1-butyl-3-methylimidazolium hexafluorophosphate,CCCCN1C=C[N+](=C1)C.F[P-](F)(F)(F)(F)F,C(CC)Cn1cc[n+](c1)C.F[P-](F)(F)(F)(F)F,33,1,504,33
315.0,0.1,0.145,Training,1-butyl-3-methylimidazolium hexafluorophosphate,CCCCN1C=C[N+](=C1)C.F[P-](F)(F)(F)(F)F,F[P-](F)(F)(F)(F)F.[n+]1(ccn(c1)CCCC)C,33,1,504,33
315.0,0.1,0.145,Training,1-butyl-3-methylimidazolium hexafluorophosphate,CCCCN1C=C[N+](=C1)C.F[P-](F)(F)(F)(F)F,CCCCn1c[n+](cc1)C.F[P-](F)(F)(F)(F)F,33,1,504,33
315.0,0.1,0.145,Training,1-butyl-3-methylimidazolium hexafluorophosphate,CCCCN1C=C[N+](=C1)C.F[P-](F)(F)(F)(F)F,F[P-](F)(F)(F)(F)F.c1n(CCCC)c[n+](c1)C,33,1,504,33
315.0,0.1,0.145,Training,1-butyl-3-methylimidazolium hexafluorophosphate,CCCCN1C=C[N+](=C1)C.F[P-](F)(F)(F)(F)F,[P-](F)(F)(F)(F)(F)F.c1[n+](C)cn(CCCC)c1,33,1,504,33
315.0,0.1,0.145,Training,1-butyl-3-methylimidazolium hexafluorophosphate,CCCCN1C=C[N+](=C1)C.F[P-](F)(F)(F)(F)F,C(CC)Cn1c[n+](cc1)C.F[P-](F)(F)(F)(F)F,33,1,504,33
315.0,0.1,0.145,Training,1-butyl-3-methylimidazolium hexafluorophosphate,CCCCN1C=C[N+](=C1)C.F[P-](F)(F)(F)(F)F,F[P-](F)(F)(F)(F)F.c1[n+](C)ccn1CCCC,33,1,504,33
315.0,10.0,0.146,Training,1-butyl-3-methylimidazolium hexafluorophosphate,CCCCN1C=C[N+](=C1)C.F[P-](F)(F)(F)(F)F,CCCCn1cc[n+](C)c1.F[P-](F)(F)(F)(F)F,33,100,505,33
315.0,10.0,0.146,Training,1-butyl-3-methylimidazolium hexafluorophosphate,CCCCN1C=C[N+](=C1)C.F[P-](F)(F)(F)(F)F,CCCCn1cc[n+](c1)C.F[P-](F)(F)(F)(F)F,33,100,505,33
315.0,10.0,0.146,Training,1-butyl-3-methylimidazolium hexafluorophosphate,CCCCN1C=C[N+](=C1)C.F[P-](F)(F)(F)(F)F,C(CCn1cc[n+](C)c1)C.F[P-](F)(F)(F)(F)F,33,100,505,33
315.0,10.0,0.146,Training,1-butyl-3-methylimidazolium hexafluorophosphate,CCCCN1C=C[N+](=C1)C.F[P-](F)(F)(F)(F)F,[P-](F)(F)(F)(F)(F)F.c1n(c[n+](C)c1)CCCC,33,100,505,33
315.0,10.0,0.146,Training,1-butyl-3-methylimidazolium hexafluorophosphate,CCCCN1C=C[N+](=C1)C.F[P-](F)(F)(F)(F)F,F[P-](F)(F)(F)(F)F.[n+]1(cn(CCCC)cc1)C,33,100,505,33
315.0,10.0,0.146,Training,1-butyl-3-methylimidazolium hexafluorophosphate,CCCCN1C=C[N+](=C1)C.F[P-](F)(F)(F)(F)F,C(CC)Cn1c[n+](C)cc1.F[P-](F)(F)(F)(F)F,33,100,505,33
315.0,10.0,0.146,Training,1-butyl-3-methylimidazolium hexafluorophosphate,CCCCN1C=C[N+](=C1)C.F[P-](F)(F)(F)(F)F,C(C)CCn1cc[n+](c1)C.[P-](F)(F)(F)(F)(F)F,33,100,505,33
315.0,10.0,0.146,Training,1-butyl-3-methylimidazolium hexafluorophosphate,CCCCN1C=C[N+](=C1)C.F[P-](F)(F)(F)(F)F,F[P-](F)(F)(F)(F)F.n1(CCCC)cc[n+](c1)C,33,100,505,33
315.0,10.0,0.146,Training,1-butyl-3-methylimidazolium hexafluorophosphate,CCCCN1C=C[N+](=C1)C.F[P-](F)(F)(F)(F)F,F[P-](F)(F)(F)(F)F.c1n(CCCC)cc[n+]1C,33,100,505,33
315.0,20.0,0.147,Training,1-butyl-3-methylimidazolium hexafluorophosphate,CCCCN1C=C[N+](=C1)C.F[P-](F)(F)(F)(F)F,CCCCn1cc[n+](C)c1.F[P-](F)(F)(F)(F)F,33,200,506,33
315.0,20.0,0.147,Training,1-butyl-3-methylimidazolium hexafluorophosphate,CCCCN1C=C[N+](=C1)C.F[P-](F)(F)(F)(F)F,F[P-](F)(F)(F)(F)F.n1(c[n+](cc1)C)CCCC,33,200,506,33
315.0,20.0,0.147,Training,1-butyl-3-methylimidazolium hexafluorophosphate,CCCCN1C=C[N+](=C1)C.F[P-](F)(F)(F)(F)F,F[P-](F)(F)(F)(F)F.c1[n+](ccn1CCCC)C,33,200,506,33
315.0,20.0,0.147,Training,1-butyl-3-methylimidazolium hexafluorophosphate,CCCCN1C=C[N+](=C1)C.F[P-](F)(F)(F)(F)F,F[P-](F)(F)(F)(F)F.c1n(c[n+](c1)C)CCCC,33,200,506,33
315.0,20.0,0.147,Training,1-butyl-3-methylimidazolium hexafluorophosphate,CCCCN1C=C[N+](=C1)C.F[P-](F)(F)(F)(F)F,F[P-](F)(F)(F)(F)F.[n+]1(C)cn(CCCC)cc1,33,200,506,33
315.0,20.0,0.147,Training,1-butyl-3-methylimidazolium hexafluorophosphate,CCCCN1C=C[N+](=C1)C.F[P-](F)(F)(F)(F)F,[P-](F)(F)(F)(F)(F)F.n1(CCCC)cc[n+](c1)C,33,200,506,33
315.0,20.0,0.147,Training,1-butyl-3-methylimidazolium hexafluorophosphate,CCCCN1C=C[N+](=C1)C.F[P-](F)(F)(F)(F)F,C(C)CCn1c[n+](C)cc1.F[P-](F)(F)(F)(F)F,33,200,506,33
315.0,20.0,0.147,Training,1-butyl-3-methylimidazolium hexafluorophosphate,CCCCN1C=C[N+](=C1)C.F[P-](F)(F)(F)(F)F,CCCCn1c[n+](cc1)C.F[P-](F)(F)(F)(F)F,33,200,506,33
315.0,20.0,0.147,Training,1-butyl-3-methylimidazolium hexafluorophosphate,CCCCN1C=C[N+](=C1)C.F[P-](F)(F)(F)(F)F,F[P-](F)(F)(F)(F)F.c1cn(CCCC)c[n+]1C,33,200,506,33
335.1,0.1,0.144,Training,1-butyl-3-methylimidazolium hexafluorophosphate,CCCCN1C=C[N+](=C1)C.F[P-](F)(F)(F)(F)F,CCCCn1cc[n+](C)c1.F[P-](F)(F)(F)(F)F,33,1,507,33
335.1,0.1,0.144,Training,1-butyl-3-methylimidazolium hexafluorophosphate,CCCCN1C=C[N+](=C1)C.F[P-](F)(F)(F)(F)F,C(C)CCn1c[n+](cc1)C.F[P-](F)(F)(F)(F)F,33,1,507,33
335.1,0.1,0.144,Training,1-butyl-3-methylimidazolium hexafluorophosphate,CCCCN1C=C[N+](=C1)C.F[P-](F)(F)(F)(F)F,F[P-](F)(F)(F)(F)F.[n+]1(C)ccn(c1)CCCC,33,1,507,33
335.1,0.1,0.144,Training,1-butyl-3-methylimidazolium hexafluorophosphate,CCCCN1C=C[N+](=C1)C.F[P-](F)(F)(F)(F)F,C(CC)Cn1cc[n+](C)c1.F[P-](F)(F)(F)(F)F,33,1,507,33
335.1,0.1,0.144,Training,1-butyl-3-methylimidazolium hexafluorophosphate,CCCCN1C=C[N+](=C1)C.F[P-](F)(F)(F)(F)F,C(CCn1c[n+](cc1)C)C.F[P-](F)(F)(F)(F)F,33,1,507,33