T/K,P/MPa,TC/W m-1 K-1,Data type,Name,SMILES,Normalized SMILES,index,P/bar,RANDOM,IL
313.15,0.1,0.159,Training,tetrabutylphosphonium taurinate,CCCC[P+](CCCC)(CCCC)CCCC.C(CS(=O)(=O)[O-])N,C(C[P+](CCCC)(CCCC)CCCC)CC.NCCS([O-])(=O)=O,23,1,343,23
313.15,0.1,0.159,Training,tetrabutylphosphonium taurinate,CCCC[P+](CCCC)(CCCC)CCCC.C(CS(=O)(=O)[O-])N,C([P+](CCCC)(CCCC)CCCC)CCC.NCCS(=O)(=O)[O-],23,1,343,23
313.15,0.1,0.159,Training,tetrabutylphosphonium taurinate,CCCC[P+](CCCC)(CCCC)CCCC.C(CS(=O)(=O)[O-])N,S(CCN)(=O)([O-])=O.[P+](CCCC)(CCCC)(CCCC)CCCC,23,1,343,23
313.15,0.1,0.159,Training,tetrabutylphosphonium taurinate,CCCC[P+](CCCC)(CCCC)CCCC.C(CS(=O)(=O)[O-])N,C(CN)S(=O)([O-])=O.CCCC[P+](CCCC)(CCCC)CCCC,23,1,343,23
313.15,0.1,0.159,Training,tetrabutylphosphonium taurinate,CCCC[P+](CCCC)(CCCC)CCCC.C(CS(=O)(=O)[O-])N,C(N)CS(=O)(=O)[O-].CCCC[P+](CCCC)(CCCC)CCCC,23,1,343,23
313.15,0.1,0.159,Training,tetrabutylphosphonium taurinate,CCCC[P+](CCCC)(CCCC)CCCC.C(CS(=O)(=O)[O-])N,CCCC[P+](CCCC)(CCCC)CCCC.O=S([O-])(=O)CCN,23,1,343,23
313.15,0.1,0.159,Training,tetrabutylphosphonium taurinate,CCCC[P+](CCCC)(CCCC)CCCC.C(CS(=O)(=O)[O-])N,C(CS([O-])(=O)=O)N.C(C[P+](CCCC)(CCCC)CCCC)CC,23,1,343,23
313.15,0.1,0.159,Training,tetrabutylphosphonium taurinate,CCCC[P+](CCCC)(CCCC)CCCC.C(CS(=O)(=O)[O-])N,C(N)CS([O-])(=O)=O.C([P+](CCCC)(CCCC)CCCC)CCC,23,1,343,23
323.15,0.1,0.158,Training,tetrabutylphosphonium taurinate,CCCC[P+](CCCC)(CCCC)CCCC.C(CS(=O)(=O)[O-])N,CCCC[P+](CCCC)(CCCC)CCCC.NCCS(=O)(=O)[O-],23,1,344,23
323.15,0.1,0.158,Training,tetrabutylphosphonium taurinate,CCCC[P+](CCCC)(CCCC)CCCC.C(CS(=O)(=O)[O-])N,C(CCC)[P+](CCCC)(CCCC)CCCC.C(CS(=O)([O-])=O)N,23,1,344,23
323.15,0.1,0.158,Training,tetrabutylphosphonium taurinate,CCCC[P+](CCCC)(CCCC)CCCC.C(CS(=O)(=O)[O-])N,C(C[P+](CCCC)(CCCC)CCCC)CC.[O-]S(=O)(CCN)=O,23,1,344,23
323.15,0.1,0.158,Training,tetrabutylphosphonium taurinate,CCCC[P+](CCCC)(CCCC)CCCC.C(CS(=O)(=O)[O-])N,C(CC)C[P+](CCCC)(CCCC)CCCC.[O-]S(=O)(=O)CCN,23,1,344,23
323.15,0.1,0.158,Training,tetrabutylphosphonium taurinate,CCCC[P+](CCCC)(CCCC)CCCC.C(CS(=O)(=O)[O-])N,C(CCC)[P+](CCCC)(CCCC)CCCC.[O-]S(CCN)(=O)=O,23,1,344,23
323.15,0.1,0.158,Training,tetrabutylphosphonium taurinate,CCCC[P+](CCCC)(CCCC)CCCC.C(CS(=O)(=O)[O-])N,C(CC)C[P+](CCCC)(CCCC)CCCC.NCCS([O-])(=O)=O,23,1,344,23
323.15,0.1,0.158,Training,tetrabutylphosphonium taurinate,CCCC[P+](CCCC)(CCCC)CCCC.C(CS(=O)(=O)[O-])N,C(CC[P+](CCCC)(CCCC)CCCC)C.NCCS([O-])(=O)=O,23,1,344,23
323.15,0.1,0.158,Training,tetrabutylphosphonium taurinate,CCCC[P+](CCCC)(CCCC)CCCC.C(CS(=O)(=O)[O-])N,C(CC)C[P+](CCCC)(CCCC)CCCC.S(=O)([O-])(CCN)=O,23,1,344,23
323.15,0.1,0.158,Training,tetrabutylphosphonium taurinate,CCCC[P+](CCCC)(CCCC)CCCC.C(CS(=O)(=O)[O-])N,C(C[P+](CCCC)(CCCC)CCCC)CC.NCCS(=O)(=O)[O-],23,1,344,23
323.15,0.1,0.158,Training,tetrabutylphosphonium taurinate,CCCC[P+](CCCC)(CCCC)CCCC.C(CS(=O)(=O)[O-])N,C(CS(=O)([O-])=O)N.CCCC[P+](CCCC)(CCCC)CCCC,23,1,344,23
333.15,0.1,0.157,Training,tetrabutylphosphonium taurinate,CCCC[P+](CCCC)(CCCC)CCCC.C(CS(=O)(=O)[O-])N,CCCC[P+](CCCC)(CCCC)CCCC.NCCS(=O)(=O)[O-],23,1,345,23
333.15,0.1,0.157,Training,tetrabutylphosphonium taurinate,CCCC[P+](CCCC)(CCCC)CCCC.C(CS(=O)(=O)[O-])N,C(CC[P+](CCCC)(CCCC)CCCC)C.S(CCN)(=O)([O-])=O,23,1,345,23
333.15,0.1,0.157,Training,tetrabutylphosphonium taurinate,CCCC[P+](CCCC)(CCCC)CCCC.C(CS(=O)(=O)[O-])N,C(CC)C[P+](CCCC)(CCCC)CCCC.C(S(=O)([O-])=O)CN,23,1,345,23
333.15,0.1,0.157,Training,tetrabutylphosphonium taurinate,CCCC[P+](CCCC)(CCCC)CCCC.C(CS(=O)(=O)[O-])N,C(C)CC[P+](CCCC)(CCCC)CCCC.C(N)CS(=O)([O-])=O,23,1,345,23
333.15,0.1,0.157,Training,tetrabutylphosphonium taurinate,CCCC[P+](CCCC)(CCCC)CCCC.C(CS(=O)(=O)[O-])N,C(CS([O-])(=O)=O)N.C([P+](CCCC)(CCCC)CCCC)CCC,23,1,345,23
333.15,0.1,0.157,Training,tetrabutylphosphonium taurinate,CCCC[P+](CCCC)(CCCC)CCCC.C(CS(=O)(=O)[O-])N,C(S(=O)(=O)[O-])CN.[P+](CCCC)(CCCC)(CCCC)CCCC,23,1,345,23
333.15,0.1,0.157,Training,tetrabutylphosphonium taurinate,CCCC[P+](CCCC)(CCCC)CCCC.C(CS(=O)(=O)[O-])N,C(N)CS(=O)(=O)[O-].CCCC[P+](CCCC)(CCCC)CCCC,23,1,345,23
333.15,0.1,0.157,Training,tetrabutylphosphonium taurinate,CCCC[P+](CCCC)(CCCC)CCCC.C(CS(=O)(=O)[O-])N,C(CCC)[P+](CCCC)(CCCC)CCCC.NCCS(=O)([O-])=O,23,1,345,23
333.15,0.1,0.157,Training,tetrabutylphosphonium taurinate,CCCC[P+](CCCC)(CCCC)CCCC.C(CS(=O)(=O)[O-])N,C(C)CC[P+](CCCC)(CCCC)CCCC.S([O-])(=O)(=O)CCN,23,1,345,23
333.15,0.1,0.157,Training,tetrabutylphosphonium taurinate,CCCC[P+](CCCC)(CCCC)CCCC.C(CS(=O)(=O)[O-])N,CCCC[P+](CCCC)(CCCC)CCCC.O=S(=O)(CCN)[O-],23,1,345,23
343.15,0.1,0.156,Training,tetrabutylphosphonium taurinate,CCCC[P+](CCCC)(CCCC)CCCC.C(CS(=O)(=O)[O-])N,CCCC[P+](CCCC)(CCCC)CCCC.NCCS(=O)(=O)[O-],23,1,346,23
343.15,0.1,0.156,Training,tetrabutylphosphonium taurinate,CCCC[P+](CCCC)(CCCC)CCCC.C(CS(=O)(=O)[O-])N,C(CCC)[P+](CCCC)(CCCC)CCCC.O=S(CCN)(=O)[O-],23,1,346,23
343.15,0.1,0.156,Training,tetrabutylphosphonium taurinate,CCCC[P+](CCCC)(CCCC)CCCC.C(CS(=O)(=O)[O-])N,C(CC[P+](CCCC)(CCCC)CCCC)C.C(CN)S(=O)(=O)[O-],23,1,346,23
343.15,0.1,0.156,Training,tetrabutylphosphonium taurinate,CCCC[P+](CCCC)(CCCC)CCCC.C(CS(=O)(=O)[O-])N,C(CS(=O)([O-])=O)N.C([P+](CCCC)(CCCC)CCCC)CCC,23,1,346,23
343.15,0.1,0.156,Training,tetrabutylphosphonium taurinate,CCCC[P+](CCCC)(CCCC)CCCC.C(CS(=O)(=O)[O-])N,C([P+](CCCC)(CCCC)CCCC)CCC.[O-]S(=O)(=O)CCN,23,1,346,23
343.15,0.1,0.156,Training,tetrabutylphosphonium taurinate,CCCC[P+](CCCC)(CCCC)CCCC.C(CS(=O)(=O)[O-])N,C(CCC)[P+](CCCC)(CCCC)CCCC.O=S(CCN)([O-])=O,23,1,346,23
343.15,0.1,0.156,Training,tetrabutylphosphonium taurinate,CCCC[P+](CCCC)(CCCC)CCCC.C(CS(=O)(=O)[O-])N,C(CCC)[P+](CCCC)(CCCC)CCCC.C(CN)S(=O)([O-])=O,23,1,346,23
343.15,0.1,0.156,Training,tetrabutylphosphonium taurinate,CCCC[P+](CCCC)(CCCC)CCCC.C(CS(=O)(=O)[O-])N,C(CC[P+](CCCC)(CCCC)CCCC)C.C(N)CS([O-])(=O)=O,23,1,346,23
343.15,0.1,0.156,Training,tetrabutylphosphonium taurinate,CCCC[P+](CCCC)(CCCC)CCCC.C(CS(=O)(=O)[O-])N,C(CN)S(=O)(=O)[O-].C(C[P+](CCCC)(CCCC)CCCC)CC,23,1,346,23
343.15,0.1,0.156,Training,tetrabutylphosphonium taurinate,CCCC[P+](CCCC)(CCCC)CCCC.C(CS(=O)(=O)[O-])N,C(CC)C[P+](CCCC)(CCCC)CCCC.O=S(CCN)([O-])=O,23,1,346,23
353.15,0.1,0.155,Training,tetrabutylphosphonium taurinate,CCCC[P+](CCCC)(CCCC)CCCC.C(CS(=O)(=O)[O-])N,CCCC[P+](CCCC)(CCCC)CCCC.NCCS(=O)(=O)[O-],23,1,347,23
353.15,0.1,0.155,Training,tetrabutylphosphonium taurinate,CCCC[P+](CCCC)(CCCC)CCCC.C(CS(=O)(=O)[O-])N,C(CC[P+](CCCC)(CCCC)CCCC)C.C(CS([O-])(=O)=O)N,23,1,347,23
353.15,0.1,0.155,Training,tetrabutylphosphonium taurinate,CCCC[P+](CCCC)(CCCC)CCCC.C(CS(=O)(=O)[O-])N,C(CCC)[P+](CCCC)(CCCC)CCCC.NCCS(=O)(=O)[O-],23,1,347,23
353.15,0.1,0.155,Training,tetrabutylphosphonium taurinate,CCCC[P+](CCCC)(CCCC)CCCC.C(CS(=O)(=O)[O-])N,C(CC[P+](CCCC)(CCCC)CCCC)C.O=S(=O)(CCN)[O-],23,1,347,23
353.15,0.1,0.155,Training,tetrabutylphosphonium taurinate,CCCC[P+](CCCC)(CCCC)CCCC.C(CS(=O)(=O)[O-])N,C([P+](CCCC)(CCCC)CCCC)CCC.O=S(=O)(CCN)[O-],23,1,347,23
353.15,0.1,0.155,Training,tetrabutylphosphonium taurinate,CCCC[P+](CCCC)(CCCC)CCCC.C(CS(=O)(=O)[O-])N,C(CS([O-])(=O)=O)N.[P+](CCCC)(CCCC)(CCCC)CCCC,23,1,347,23
353.15,0.1,0.155,Training,tetrabutylphosphonium taurinate,CCCC[P+](CCCC)(CCCC)CCCC.C(CS(=O)(=O)[O-])N,CCCC[P+](CCCC)(CCCC)CCCC.O=S([O-])(CCN)=O,23,1,347,23
353.15,0.1,0.155,Training,tetrabutylphosphonium taurinate,CCCC[P+](CCCC)(CCCC)CCCC.C(CS(=O)(=O)[O-])N,C(CC[P+](CCCC)(CCCC)CCCC)C.C(N)CS(=O)([O-])=O,23,1,347,23
353.15,0.1,0.155,Training,tetrabutylphosphonium taurinate,CCCC[P+](CCCC)(CCCC)CCCC.C(CS(=O)(=O)[O-])N,C(C)CC[P+](CCCC)(CCCC)CCCC.[O-]S(CCN)(=O)=O,23,1,347,23
353.15,0.1,0.155,Training,tetrabutylphosphonium taurinate,CCCC[P+](CCCC)(CCCC)CCCC.C(CS(=O)(=O)[O-])N,C(CC)C[P+](CCCC)(CCCC)CCCC.O=S([O-])(=O)CCN,23,1,347,23
298.15,0.1,0.163,Training,tetrabutylphosphonium lysinate,CCCC[P+](CCCC)(CCCC)CCCC.C(CCN)CC(C(=O)[O-])N,CCCC[P+](CCCC)(CCCC)CCCC.NCCCCC(N)C(=O)[O-],24,1,348,24
298.15,0.1,0.163,Training,tetrabutylphosphonium lysinate,CCCC[P+](CCCC)(CCCC)CCCC.C(CCN)CC(C(=O)[O-])N,C(CCC)[P+](CCCC)(CCCC)CCCC.NCCCCC(C(=O)[O-])N,24,1,348,24
298.15,0.1,0.163,Training,tetrabutylphosphonium lysinate,CCCC[P+](CCCC)(CCCC)CCCC.C(CCN)CC(C(=O)[O-])N,CCCC[P+](CCCC)(CCCC)CCCC.O=C([O-])C(N)CCCCN,24,1,348,24
298.15,0.1,0.163,Training,tetrabutylphosphonium lysinate,CCCC[P+](CCCC)(CCCC)CCCC.C(CCN)CC(C(=O)[O-])N,C(CC)C[P+](CCCC)(CCCC)CCCC.NCCCCC(C(=O)[O-])N,24,1,348,24
298.15,0.1,0.163,Training,tetrabutylphosphonium lysinate,CCCC[P+](CCCC)(CCCC)CCCC.C(CCN)CC(C(=O)[O-])N,C(CCC)[P+](CCCC)(CCCC)CCCC.C(CCCN)C(N)C(=O)[O-],24,1,348,24
298.15,0.1,0.163,Training,tetrabutylphosphonium lysinate,CCCC[P+](CCCC)(CCCC)CCCC.C(CCN)CC(C(=O)[O-])N,C(CC[P+](CCCC)(CCCC)CCCC)C.O=C(C(CCCCN)N)[O-],24,1,348,24
298.15,0.1,0.163,Training,tetrabutylphosphonium lysinate,CCCC[P+](CCCC)(CCCC)CCCC.C(CCN)CC(C(=O)[O-])N,C(CC)C[P+](CCCC)(CCCC)CCCC.[O-]C(=O)C(CCCCN)N,24,1,348,24
298.15,0.1,0.163,Training,tetrabutylphosphonium lysinate,CCCC[P+](CCCC)(CCCC)CCCC.C(CCN)CC(C(=O)[O-])N,C(CCCN)C(N)C(=O)[O-].C(CC[P+](CCCC)(CCCC)CCCC)C,24,1,348,24
298.15,0.1,0.163,Training,tetrabutylphosphonium lysinate,CCCC[P+](CCCC)(CCCC)CCCC.C(CCN)CC(C(=O)[O-])N,C(=O)([O-])C(CCCCN)N.CCCC[P+](CCCC)(CCCC)CCCC,24,1,348,24
303.15,0.1,0.163,Training,tetrabutylphosphonium lysinate,CCCC[P+](CCCC)(CCCC)CCCC.C(CCN)CC(C(=O)[O-])N,CCCC[P+](CCCC)(CCCC)CCCC.NCCCCC(N)C(=O)[O-],24,1,349,24
303.15,0.1,0.163,Training,tetrabutylphosphonium lysinate,CCCC[P+](CCCC)(CCCC)CCCC.C(CCN)CC(C(=O)[O-])N,C(C(CCCCN)N)([O-])=O.CCCC[P+](CCCC)(CCCC)CCCC,24,1,349,24
303.15,0.1,0.163,Training,tetrabutylphosphonium lysinate,CCCC[P+](CCCC)(CCCC)CCCC.C(CCN)CC(C(=O)[O-])N,C(C[P+](CCCC)(CCCC)CCCC)CC.C([O-])(=O)C(CCCCN)N,24,1,349,24
303.15,0.1,0.163,Training,tetrabutylphosphonium lysinate,CCCC[P+](CCCC)(CCCC)CCCC.C(CCN)CC(C(=O)[O-])N,CCCC[P+](CCCC)(CCCC)CCCC.O=C([O-])C(N)CCCCN,24,1,349,24
303.15,0.1,0.163,Training,tetrabutylphosphonium lysinate,CCCC[P+](CCCC)(CCCC)CCCC.C(CCN)CC(C(=O)[O-])N,C(N)(CCCCN)C([O-])=O.C([P+](CCCC)(CCCC)CCCC)CCC,24,1,349,24
303.15,0.1,0.163,Training,tetrabutylphosphonium lysinate,CCCC[P+](CCCC)(CCCC)CCCC.C(CCN)CC(C(=O)[O-])N,C(N)(C(=O)[O-])CCCCN.CCCC[P+](CCCC)(CCCC)CCCC,24,1,349,24
303.15,0.1,0.163,Training,tetrabutylphosphonium lysinate,CCCC[P+](CCCC)(CCCC)CCCC.C(CCN)CC(C(=O)[O-])N,C(C([O-])=O)(CCCCN)N.C(C[P+](CCCC)(CCCC)CCCC)CC,24,1,349,24
303.15,0.1,0.163,Training,tetrabutylphosphonium lysinate,CCCC[P+](CCCC)(CCCC)CCCC.C(CCN)CC(C(=O)[O-])N,C(CC[P+](CCCC)(CCCC)CCCC)C.O=C(C(CCCCN)N)[O-],24,1,349,24
303.15,0.1,0.163,Training,tetrabutylphosphonium lysinate,CCCC[P+](CCCC)(CCCC)CCCC.C(CCN)CC(C(=O)[O-])N,C(C(N)C(=O)[O-])CCCN.C(C)CC[P+](CCCC)(CCCC)CCCC,24,1,349,24
303.15,0.1,0.163,Training,tetrabutylphosphonium lysinate,CCCC[P+](CCCC)(CCCC)CCCC.C(CCN)CC(C(=O)[O-])N,C([P+](CCCC)(CCCC)CCCC)CCC.NCCCCC(C([O-])=O)N,24,1,349,24
313.15,0.1,0.162,Training,tetrabutylphosphonium lysinate,CCCC[P+](CCCC)(CCCC)CCCC.C(CCN)CC(C(=O)[O-])N,CCCC[P+](CCCC)(CCCC)CCCC.NCCCCC(N)C(=O)[O-],24,1,350,24
313.15,0.1,0.162,Training,tetrabutylphosphonium lysinate,CCCC[P+](CCCC)(CCCC)CCCC.C(CCN)CC(C(=O)[O-])N,C(CCC)[P+](CCCC)(CCCC)CCCC.C(CCN)CC(N)C(=O)[O-],24,1,350,24
313.15,0.1,0.162,Training,tetrabutylphosphonium lysinate,CCCC[P+](CCCC)(CCCC)CCCC.C(CCN)CC(C(=O)[O-])N,C(C)CC[P+](CCCC)(CCCC)CCCC.C(CCC(C([O-])=O)N)CN,24,1,350,24
313.15,0.1,0.162,Training,tetrabutylphosphonium lysinate,CCCC[P+](CCCC)(CCCC)CCCC.C(CCN)CC(C(=O)[O-])N,C(CC)C[P+](CCCC)(CCCC)CCCC.C([O-])(C(N)CCCCN)=O,24,1,350,24
313.15,0.1,0.162,Training,tetrabutylphosphonium lysinate,CCCC[P+](CCCC)(CCCC)CCCC.C(CCN)CC(C(=O)[O-])N,C([P+](CCCC)(CCCC)CCCC)CCC.O=C([O-])C(N)CCCCN,24,1,350,24
313.15,0.1,0.162,Training,tetrabutylphosphonium lysinate,CCCC[P+](CCCC)(CCCC)CCCC.C(CCN)CC(C(=O)[O-])N,C(C(N)C([O-])=O)CCCN.C([P+](CCCC)(CCCC)CCCC)CCC,24,1,350,24
313.15,0.1,0.162,Training,tetrabutylphosphonium lysinate,CCCC[P+](CCCC)(CCCC)CCCC.C(CCN)CC(C(=O)[O-])N,C(C[P+](CCCC)(CCCC)CCCC)CC.O=C([O-])C(CCCCN)N,24,1,350,24
313.15,0.1,0.162,Training,tetrabutylphosphonium lysinate,CCCC[P+](CCCC)(CCCC)CCCC.C(CCN)CC(C(=O)[O-])N,C(C[P+](CCCC)(CCCC)CCCC)CC.O=C(C(CCCCN)N)[O-],24,1,350,24
313.15,0.1,0.162,Training,tetrabutylphosphonium lysinate,CCCC[P+](CCCC)(CCCC)CCCC.C(CCN)CC(C(=O)[O-])N,C(CCC)[P+](CCCC)(CCCC)CCCC.[O-]C(C(CCCCN)N)=O,24,1,350,24
313.15,0.1,0.162,Training,tetrabutylphosphonium lysinate,CCCC[P+](CCCC)(CCCC)CCCC.C(CCN)CC(C(=O)[O-])N,C(CCCC(N)C([O-])=O)N.C(C[P+](CCCC)(CCCC)CCCC)CC,24,1,350,24
323.15,0.1,0.161,Training,tetrabutylphosphonium lysinate,CCCC[P+](CCCC)(CCCC)CCCC.C(CCN)CC(C(=O)[O-])N,CCCC[P+](CCCC)(CCCC)CCCC.NCCCCC(N)C(=O)[O-],24,1,351,24
323.15,0.1,0.161,Training,tetrabutylphosphonium lysinate,CCCC[P+](CCCC)(CCCC)CCCC.C(CCN)CC(C(=O)[O-])N,C(CC)C[P+](CCCC)(CCCC)CCCC.C(N)(CCCCN)C([O-])=O,24,1,351,24
323.15,0.1,0.161,Training,tetrabutylphosphonium lysinate,CCCC[P+](CCCC)(CCCC)CCCC.C(CCN)CC(C(=O)[O-])N,C(CC[P+](CCCC)(CCCC)CCCC)C.O=C([O-])C(CCCCN)N,24,1,351,24
323.15,0.1,0.161,Training,tetrabutylphosphonium lysinate,CCCC[P+](CCCC)(CCCC)CCCC.C(CCN)CC(C(=O)[O-])N,C(CCC)[P+](CCCC)(CCCC)CCCC.O=C([O-])C(N)CCCCN,24,1,351,24
323.15,0.1,0.161,Training,tetrabutylphosphonium lysinate,CCCC[P+](CCCC)(CCCC)CCCC.C(CCN)CC(C(=O)[O-])N,C(C[P+](CCCC)(CCCC)CCCC)CC.C(N)CCCC(C([O-])=O)N,24,1,351,24
323.15,0.1,0.161,Training,tetrabutylphosphonium lysinate,CCCC[P+](CCCC)(CCCC)CCCC.C(CCN)CC(C(=O)[O-])N,[O-]C(C(CCCCN)N)=O.[P+](CCCC)(CCCC)(CCCC)CCCC,24,1,351,24
323.15,0.1,0.161,Training,tetrabutylphosphonium lysinate,CCCC[P+](CCCC)(CCCC)CCCC.C(CCN)CC(C(=O)[O-])N,C(C)CC[P+](CCCC)(CCCC)CCCC.C(N)CCCC(C(=O)[O-])N,24,1,351,24
323.15,0.1,0.161,Training,tetrabutylphosphonium lysinate,CCCC[P+](CCCC)(CCCC)CCCC.C(CCN)CC(C(=O)[O-])N,C(CC)C[P+](CCCC)(CCCC)CCCC.NC(C(=O)[O-])CCCCN,24,1,351,24
323.15,0.1,0.161,Training,tetrabutylphosphonium lysinate,CCCC[P+](CCCC)(CCCC)CCCC.C(CCN)CC(C(=O)[O-])N,C(C(N)CCCCN)([O-])=O.CCCC[P+](CCCC)(CCCC)CCCC,24,1,351,24
323.15,0.1,0.161,Training,tetrabutylphosphonium lysinate,CCCC[P+](CCCC)(CCCC)CCCC.C(CCN)CC(C(=O)[O-])N,C(CCC)[P+](CCCC)(CCCC)CCCC.C(N)(CCCCN)C([O-])=O,24,1,351,24
333.15,0.1,0.16,Training,tetrabutylphosphonium lysinate,CCCC[P+](CCCC)(CCCC)CCCC.C(CCN)CC(C(=O)[O-])N,CCCC[P+](CCCC)(CCCC)CCCC.NCCCCC(N)C(=O)[O-],24,1,352,24
333.15,0.1,0.16,Training,tetrabutylphosphonium lysinate,CCCC[P+](CCCC)(CCCC)CCCC.C(CCN)CC(C(=O)[O-])N,C(CCC)[P+](CCCC)(CCCC)CCCC.O=C([O-])C(CCCCN)N,24,1,352,24
333.15,0.1,0.16,Training,tetrabutylphosphonium lysinate,CCCC[P+](CCCC)(CCCC)CCCC.C(CCN)CC(C(=O)[O-])N,C(C(CCCCN)N)([O-])=O.CCCC[P+](CCCC)(CCCC)CCCC,24,1,352,24
333.15,0.1,0.16,Training,tetrabutylphosphonium lysinate,CCCC[P+](CCCC)(CCCC)CCCC.C(CCN)CC(C(=O)[O-])N,C(C[P+](CCCC)(CCCC)CCCC)CC.O=C([O-])C(N)CCCCN,24,1,352,24
333.15,0.1,0.16,Training,tetrabutylphosphonium lysinate,CCCC[P+](CCCC)(CCCC)CCCC.C(CCN)CC(C(=O)[O-])N,C(CC)C[P+](CCCC)(CCCC)CCCC.C(CCCC(N)C([O-])=O)N,24,1,352,24
333.15,0.1,0.16,Training,tetrabutylphosphonium lysinate,CCCC[P+](CCCC)(CCCC)CCCC.C(CCN)CC(C(=O)[O-])N,CCCC[P+](CCCC)(CCCC)CCCC.NC(C([O-])=O)CCCCN,24,1,352,24
333.15,0.1,0.16,Training,tetrabutylphosphonium lysinate,CCCC[P+](CCCC)(CCCC)CCCC.C(CCN)CC(C(=O)[O-])N,CCCC[P+](CCCC)(CCCC)CCCC.O=C(C(N)CCCCN)[O-],24,1,352,24
333.15,0.1,0.16,Training,tetrabutylphosphonium lysinate,CCCC[P+](CCCC)(CCCC)CCCC.C(CCN)CC(C(=O)[O-])N,CCCC[P+](CCCC)(CCCC)CCCC.[O-]C(=O)C(CCCCN)N,24,1,352,24
333.15,0.1,0.16,Training,tetrabutylphosphonium lysinate,CCCC[P+](CCCC)(CCCC)CCCC.C(CCN)CC(C(=O)[O-])N,C(CC(C(=O)[O-])N)CCN.C(CCC)[P+](CCCC)(CCCC)CCCC,24,1,352,24
333.15,0.1,0.16,Training,tetrabutylphosphonium lysinate,CCCC[P+](CCCC)(CCCC)CCCC.C(CCN)CC(C(=O)[O-])N,NCCCCC(C([O-])=O)N.[P+](CCCC)(CCCC)(CCCC)CCCC,24,1,352,24
343.15,0.1,0.159,Training,tetrabutylphosphonium lysinate,CCCC[P+](CCCC)(CCCC)CCCC.C(CCN)CC(C(=O)[O-])N,CCCC[P+](CCCC)(CCCC)CCCC.NCCCCC(N)C(=O)[O-],24,1,353,24
343.15,0.1,0.159,Training,tetrabutylphosphonium lysinate,CCCC[P+](CCCC)(CCCC)CCCC.C(CCN)CC(C(=O)[O-])N,C(CCC)[P+](CCCC)(CCCC)CCCC.C(N)(CCCCN)C([O-])=O,24,1,353,24
343.15,0.1,0.159,Training,tetrabutylphosphonium lysinate,CCCC[P+](CCCC)(CCCC)CCCC.C(CCN)CC(C(=O)[O-])N,C(C(C([O-])=O)N)CCCN.C([P+](CCCC)(CCCC)CCCC)CCC,24,1,353,24
343.15,0.1,0.159,Training,tetrabutylphosphonium lysinate,CCCC[P+](CCCC)(CCCC)CCCC.C(CCN)CC(C(=O)[O-])N,CCCC[P+](CCCC)(CCCC)CCCC.[O-]C(C(CCCCN)N)=O,24,1,353,24
343.15,0.1,0.159,Training,tetrabutylphosphonium lysinate,CCCC[P+](CCCC)(CCCC)CCCC.C(CCN)CC(C(=O)[O-])N,C([P+](CCCC)(CCCC)CCCC)CCC.NC(CCCCN)C([O-])=O,24,1,353,24
343.15,0.1,0.159,Training,tetrabutylphosphonium lysinate,CCCC[P+](CCCC)(CCCC)CCCC.C(CCN)CC(C(=O)[O-])N,C(C(C(=O)[O-])N)CCCN.C(C[P+](CCCC)(CCCC)CCCC)CC,24,1,353,24
343.15,0.1,0.159,Training,tetrabutylphosphonium lysinate,CCCC[P+](CCCC)(CCCC)CCCC.C(CCN)CC(C(=O)[O-])N,C(CC)C[P+](CCCC)(CCCC)CCCC.O=C([O-])C(N)CCCCN,24,1,353,24
343.15,0.1,0.159,Training,tetrabutylphosphonium lysinate,CCCC[P+](CCCC)(CCCC)CCCC.C(CCN)CC(C(=O)[O-])N,C(=O)([O-])C(CCCCN)N.CCCC[P+](CCCC)(CCCC)CCCC,24,1,353,24
343.15,0.1,0.159,Training,tetrabutylphosphonium lysinate,CCCC[P+](CCCC)(CCCC)CCCC.C(CCN)CC(C(=O)[O-])N,C(CCCC(N)C(=O)[O-])N.[P+](CCCC)(CCCC)(CCCC)CCCC,24,1,353,24
343.15,0.1,0.159,Training,tetrabutylphosphonium lysinate,CCCC[P+](CCCC)(CCCC)CCCC.C(CCN)CC(C(=O)[O-])N,C(CC[P+](CCCC)(CCCC)CCCC)C.C(N)CCCC(N)C([O-])=O,24,1,353,24
353.15,0.1,0.158,Training,tetrabutylphosphonium lysinate,CCCC[P+](CCCC)(CCCC)CCCC.C(CCN)CC(C(=O)[O-])N,CCCC[P+](CCCC)(CCCC)CCCC.NCCCCC(N)C(=O)[O-],24,1,354,24
353.15,0.1,0.158,Training,tetrabutylphosphonium lysinate,CCCC[P+](CCCC)(CCCC)CCCC.C(CCN)CC(C(=O)[O-])N,C(C(N)C(=O)[O-])CCCN.C(C[P+](CCCC)(CCCC)CCCC)CC,24,1,354,24
353.15,0.1,0.158,Training,tetrabutylphosphonium lysinate,CCCC[P+](CCCC)(CCCC)CCCC.C(CCN)CC(C(=O)[O-])N,CCCC[P+](CCCC)(CCCC)CCCC.O=C([O-])C(N)CCCCN,24,1,354,24
353.15,0.1,0.158,Training,tetrabutylphosphonium lysinate,CCCC[P+](CCCC)(CCCC)CCCC.C(CCN)CC(C(=O)[O-])N,NC(C([O-])=O)CCCCN.[P+](CCCC)(CCCC)(CCCC)CCCC,24,1,354,24
353.15,0.1,0.158,Training,tetrabutylphosphonium lysinate,CCCC[P+](CCCC)(CCCC)CCCC.C(CCN)CC(C(=O)[O-])N,C(CCCCN)(N)C([O-])=O.C(C[P+](CCCC)(CCCC)CCCC)CC,24,1,354,24
353.15,0.1,0.158,Training,tetrabutylphosphonium lysinate,CCCC[P+](CCCC)(CCCC)CCCC.C(CCN)CC(C(=O)[O-])N,C(C([O-])=O)(N)CCCCN.[P+](CCCC)(CCCC)(CCCC)CCCC,24,1,354,24
353.15,0.1,0.158,Training,tetrabutylphosphonium lysinate,CCCC[P+](CCCC)(CCCC)CCCC.C(CCN)CC(C(=O)[O-])N,CCCC[P+](CCCC)(CCCC)CCCC.[O-]C(C(N)CCCCN)=O,24,1,354,24
353.15,0.1,0.158,Training,tetrabutylphosphonium lysinate,CCCC[P+](CCCC)(CCCC)CCCC.C(CCN)CC(C(=O)[O-])N,C(CC)C[P+](CCCC)(CCCC)CCCC.NCCCCC(N)C(=O)[O-],24,1,354,24
353.15,0.1,0.158,Training,tetrabutylphosphonium lysinate,CCCC[P+](CCCC)(CCCC)CCCC.C(CCN)CC(C(=O)[O-])N,C(CCCCN)(C([O-])=O)N.[P+](CCCC)(CCCC)(CCCC)CCCC,24,1,354,24
353.15,0.1,0.158,Training,tetrabutylphosphonium lysinate,CCCC[P+](CCCC)(CCCC)CCCC.C(CCN)CC(C(=O)[O-])N,C(C)CC[P+](CCCC)(CCCC)CCCC.[O-]C(=O)C(CCCCN)N,24,1,354,24
298.15,0.1,0.156,Training,tetrabutylphosphonium threonate,CCCC[P+](CCCC)(CCCC)CCCC.CC(C(C(=O)[O-])N)O,CC(O)C(N)C(=O)[O-].CCCC[P+](CCCC)(CCCC)CCCC,25,1,355,25
298.15,0.1,0.156,Training,tetrabutylphosphonium threonate,CCCC[P+](CCCC)(CCCC)CCCC.CC(C(C(=O)[O-])N)O,C(CC[P+](CCCC)(CCCC)CCCC)C.OC(C(N)C(=O)[O-])C,25,1,355,25
298.15,0.1,0.156,Training,tetrabutylphosphonium threonate,CCCC[P+](CCCC)(CCCC)CCCC.CC(C(C(=O)[O-])N)O,C([P+](CCCC)(CCCC)CCCC)CCC.OC(C(C([O-])=O)N)C,25,1,355,25
298.15,0.1,0.156,Training,tetrabutylphosphonium threonate,CCCC[P+](CCCC)(CCCC)CCCC.CC(C(C(=O)[O-])N)O,C(CC)C[P+](CCCC)(CCCC)CCCC.NC(C(O)C)C(=O)[O-],25,1,355,25
298.15,0.1,0.156,Training,tetrabutylphosphonium threonate,CCCC[P+](CCCC)(CCCC)CCCC.CC(C(C(=O)[O-])N)O,C([P+](CCCC)(CCCC)CCCC)CCC.CC(C(N)C(=O)[O-])O,25,1,355,25
298.15,0.1,0.156,Training,tetrabutylphosphonium threonate,CCCC[P+](CCCC)(CCCC)CCCC.CC(C(C(=O)[O-])N)O,C(C)CC[P+](CCCC)(CCCC)CCCC.C(O)(C(N)C([O-])=O)C,25,1,355,25
298.15,0.1,0.156,Training,tetrabutylphosphonium threonate,CCCC[P+](CCCC)(CCCC)CCCC.CC(C(C(=O)[O-])N)O,C(CC[P+](CCCC)(CCCC)CCCC)C.[O-]C(C(N)C(O)C)=O,25,1,355,25