T/K,P/MPa,TC/W m-1 K-1,Data type,Name,SMILES,Normalized SMILES,index,P/bar,RANDOM,IL
313.15,30.0,0.1797,Training,1-butyl-3-methylimidazolium dicyanamide,CCCCN1C=C[N+](=C1)C.C(=[N-])=NC#N,[N-]=C=NC#N.n1(cc[n+](c1)C)CCCC,8,300,220,8
313.15,40.0,0.1801,Training,1-butyl-3-methylimidazolium dicyanamide,CCCCN1C=C[N+](=C1)C.C(=[N-])=NC#N,CCCCn1cc[n+](C)c1.N#CN=C=[N-],8,400,221,8
313.15,40.0,0.1801,Training,1-butyl-3-methylimidazolium dicyanamide,CCCCN1C=C[N+](=C1)C.C(=[N-])=NC#N,C(#N)N=C=[N-].c1cn(CCCC)c[n+]1C,8,400,221,8
313.15,40.0,0.1801,Training,1-butyl-3-methylimidazolium dicyanamide,CCCCN1C=C[N+](=C1)C.C(=[N-])=NC#N,N(C#N)=C=[N-].c1[n+](C)cn(CCCC)c1,8,400,221,8
313.15,40.0,0.1801,Training,1-butyl-3-methylimidazolium dicyanamide,CCCCN1C=C[N+](=C1)C.C(=[N-])=NC#N,CCCCn1cc[n+](C)c1.[N-]=C=NC#N,8,400,221,8
313.15,40.0,0.1801,Training,1-butyl-3-methylimidazolium dicyanamide,CCCCN1C=C[N+](=C1)C.C(=[N-])=NC#N,C(C)CCn1c[n+](C)cc1.C(N=C=[N-])#N,8,400,221,8
313.15,40.0,0.1801,Training,1-butyl-3-methylimidazolium dicyanamide,CCCCN1C=C[N+](=C1)C.C(=[N-])=NC#N,N#CN=C=[N-].[n+]1(C)cn(cc1)CCCC,8,400,221,8
313.15,40.0,0.1801,Training,1-butyl-3-methylimidazolium dicyanamide,CCCCN1C=C[N+](=C1)C.C(=[N-])=NC#N,N(=C=[N-])C#N.c1n(cc[n+]1C)CCCC,8,400,221,8
313.15,40.0,0.1801,Training,1-butyl-3-methylimidazolium dicyanamide,CCCCN1C=C[N+](=C1)C.C(=[N-])=NC#N,C(=NC#N)=[N-].c1[n+](cn(c1)CCCC)C,8,400,221,8
313.15,40.0,0.1801,Training,1-butyl-3-methylimidazolium dicyanamide,CCCCN1C=C[N+](=C1)C.C(=[N-])=NC#N,[N-]=C=NC#N.c1[n+](C)cn(CCCC)c1,8,400,221,8
313.15,40.0,0.1801,Training,1-butyl-3-methylimidazolium dicyanamide,CCCCN1C=C[N+](=C1)C.C(=[N-])=NC#N,C(#N)N=C=[N-].CCCCn1cc[n+](C)c1,8,400,221,8
313.15,50.0,0.1808,Testing,1-butyl-3-methylimidazolium dicyanamide,CCCCN1C=C[N+](=C1)C.C(=[N-])=NC#N,CCCCn1cc[n+](C)c1.N#CN=C=[N-],8,500,222,8
313.15,50.0,0.1808,Testing,1-butyl-3-methylimidazolium dicyanamide,CCCCN1C=C[N+](=C1)C.C(=[N-])=NC#N,C(=NC#N)=[N-].c1cn(CCCC)c[n+]1C,8,500,222,8
313.15,50.0,0.1808,Testing,1-butyl-3-methylimidazolium dicyanamide,CCCCN1C=C[N+](=C1)C.C(=[N-])=NC#N,N(=C=[N-])C#N.[n+]1(ccn(c1)CCCC)C,8,500,222,8
313.15,50.0,0.1808,Testing,1-butyl-3-methylimidazolium dicyanamide,CCCCN1C=C[N+](=C1)C.C(=[N-])=NC#N,C(N=C=[N-])#N.[n+]1(cn(CCCC)cc1)C,8,500,222,8
313.15,50.0,0.1808,Testing,1-butyl-3-methylimidazolium dicyanamide,CCCCN1C=C[N+](=C1)C.C(=[N-])=NC#N,C(#N)N=C=[N-].c1n(CCCC)c[n+](c1)C,8,500,222,8
313.15,50.0,0.1808,Testing,1-butyl-3-methylimidazolium dicyanamide,CCCCN1C=C[N+](=C1)C.C(=[N-])=NC#N,C(=NC#N)=[N-].c1[n+](cn(c1)CCCC)C,8,500,222,8
313.15,50.0,0.1808,Testing,1-butyl-3-methylimidazolium dicyanamide,CCCCN1C=C[N+](=C1)C.C(=[N-])=NC#N,[N-]=C=NC#N.c1n(CCCC)cc[n+]1C,8,500,222,8
313.15,50.0,0.1808,Testing,1-butyl-3-methylimidazolium dicyanamide,CCCCN1C=C[N+](=C1)C.C(=[N-])=NC#N,C[n+]1ccn(CCCC)c1.N(=C=[N-])C#N,8,500,222,8
313.15,50.0,0.1808,Testing,1-butyl-3-methylimidazolium dicyanamide,CCCCN1C=C[N+](=C1)C.C(=[N-])=NC#N,C(n1cc[n+](C)c1)CCC.N#CN=C=[N-],8,500,222,8
313.15,50.0,0.1808,Testing,1-butyl-3-methylimidazolium dicyanamide,CCCCN1C=C[N+](=C1)C.C(=[N-])=NC#N,C[n+]1cn(cc1)CCCC.N#CN=C=[N-],8,500,222,8
313.15,60.0,0.1826,Training,1-butyl-3-methylimidazolium dicyanamide,CCCCN1C=C[N+](=C1)C.C(=[N-])=NC#N,CCCCn1cc[n+](C)c1.N#CN=C=[N-],8,600,223,8
313.15,60.0,0.1826,Training,1-butyl-3-methylimidazolium dicyanamide,CCCCN1C=C[N+](=C1)C.C(=[N-])=NC#N,[N-]=C=NC#N.c1[n+](C)cn(CCCC)c1,8,600,223,8
313.15,60.0,0.1826,Training,1-butyl-3-methylimidazolium dicyanamide,CCCCN1C=C[N+](=C1)C.C(=[N-])=NC#N,[N-]=C=NC#N.n1(CCCC)cc[n+](c1)C,8,600,223,8
313.15,60.0,0.1826,Training,1-butyl-3-methylimidazolium dicyanamide,CCCCN1C=C[N+](=C1)C.C(=[N-])=NC#N,C(=[N-])=NC#N.C[n+]1cn(cc1)CCCC,8,600,223,8
313.15,60.0,0.1826,Training,1-butyl-3-methylimidazolium dicyanamide,CCCCN1C=C[N+](=C1)C.C(=[N-])=NC#N,C[n+]1ccn(CCCC)c1.N(C#N)=C=[N-],8,600,223,8
313.15,60.0,0.1826,Training,1-butyl-3-methylimidazolium dicyanamide,CCCCN1C=C[N+](=C1)C.C(=[N-])=NC#N,C(=[N-])=NC#N.c1n(CCCC)cc[n+]1C,8,600,223,8
313.15,60.0,0.1826,Training,1-butyl-3-methylimidazolium dicyanamide,CCCCN1C=C[N+](=C1)C.C(=[N-])=NC#N,C(=[N-])=NC#N.c1[n+](ccn1CCCC)C,8,600,223,8
313.15,60.0,0.1826,Training,1-butyl-3-methylimidazolium dicyanamide,CCCCN1C=C[N+](=C1)C.C(=[N-])=NC#N,C[n+]1ccn(CCCC)c1.[N-]=C=NC#N,8,600,223,8
313.15,60.0,0.1826,Training,1-butyl-3-methylimidazolium dicyanamide,CCCCN1C=C[N+](=C1)C.C(=[N-])=NC#N,C(Cn1c[n+](cc1)C)CC.[N-]=C=NC#N,8,600,223,8
313.15,60.0,0.1826,Training,1-butyl-3-methylimidazolium dicyanamide,CCCCN1C=C[N+](=C1)C.C(=[N-])=NC#N,C(CCn1cc[n+](c1)C)C.[N-]=C=NC#N,8,600,223,8
313.15,65.0,0.184,Training,1-butyl-3-methylimidazolium dicyanamide,CCCCN1C=C[N+](=C1)C.C(=[N-])=NC#N,CCCCn1cc[n+](C)c1.N#CN=C=[N-],8,650,224,8
313.15,65.0,0.184,Training,1-butyl-3-methylimidazolium dicyanamide,CCCCN1C=C[N+](=C1)C.C(=[N-])=NC#N,N#CN=C=[N-].c1c[n+](C)cn1CCCC,8,650,224,8
313.15,65.0,0.184,Training,1-butyl-3-methylimidazolium dicyanamide,CCCCN1C=C[N+](=C1)C.C(=[N-])=NC#N,CCCCn1cc[n+](C)c1.N(C#N)=C=[N-],8,650,224,8
313.15,65.0,0.184,Training,1-butyl-3-methylimidazolium dicyanamide,CCCCN1C=C[N+](=C1)C.C(=[N-])=NC#N,C(=NC#N)=[N-].C(n1c[n+](C)cc1)CCC,8,650,224,8
313.15,65.0,0.184,Training,1-butyl-3-methylimidazolium dicyanamide,CCCCN1C=C[N+](=C1)C.C(=[N-])=NC#N,C(CCn1cc[n+](c1)C)C.N#CN=C=[N-],8,650,224,8
313.15,65.0,0.184,Training,1-butyl-3-methylimidazolium dicyanamide,CCCCN1C=C[N+](=C1)C.C(=[N-])=NC#N,C[n+]1ccn(c1)CCCC.N#CN=C=[N-],8,650,224,8
313.15,65.0,0.184,Training,1-butyl-3-methylimidazolium dicyanamide,CCCCN1C=C[N+](=C1)C.C(=[N-])=NC#N,C(=NC#N)=[N-].c1n(cc[n+]1C)CCCC,8,650,224,8
313.15,65.0,0.184,Training,1-butyl-3-methylimidazolium dicyanamide,CCCCN1C=C[N+](=C1)C.C(=[N-])=NC#N,N#CN=C=[N-].[n+]1(C)ccn(CCCC)c1,8,650,224,8
313.15,65.0,0.184,Training,1-butyl-3-methylimidazolium dicyanamide,CCCCN1C=C[N+](=C1)C.C(=[N-])=NC#N,C(CCn1c[n+](C)cc1)C.C(N=C=[N-])#N,8,650,224,8
313.15,65.0,0.184,Training,1-butyl-3-methylimidazolium dicyanamide,CCCCN1C=C[N+](=C1)C.C(=[N-])=NC#N,C(#N)N=C=[N-].CCCCn1c[n+](cc1)C,8,650,224,8
273.15,0.1,0.2137,Testing,1-ethyl-3-methylimidazolium acetate,CCN1C=C[N+](=C1)C.CC(=O)[O-],CC(=O)[O-].CCn1cc[n+](C)c1,9,1,225,9
273.15,0.1,0.2137,Testing,1-ethyl-3-methylimidazolium acetate,CCN1C=C[N+](=C1)C.CC(=O)[O-],CCn1c[n+](C)cc1.O=C([O-])C,9,1,225,9
273.15,0.1,0.2137,Testing,1-ethyl-3-methylimidazolium acetate,CCN1C=C[N+](=C1)C.CC(=O)[O-],C([O-])(=O)C.c1cn(CC)c[n+]1C,9,1,225,9
273.15,0.1,0.2137,Testing,1-ethyl-3-methylimidazolium acetate,CCN1C=C[N+](=C1)C.CC(=O)[O-],CC(=O)[O-].n1(CC)c[n+](cc1)C,9,1,225,9
273.15,0.1,0.2137,Testing,1-ethyl-3-methylimidazolium acetate,CCN1C=C[N+](=C1)C.CC(=O)[O-],C[n+]1ccn(c1)CC.O=C(C)[O-],9,1,225,9
273.15,0.1,0.2137,Testing,1-ethyl-3-methylimidazolium acetate,CCN1C=C[N+](=C1)C.CC(=O)[O-],C(C)([O-])=O.c1[n+](C)ccn1CC,9,1,225,9
273.15,0.1,0.2137,Testing,1-ethyl-3-methylimidazolium acetate,CCN1C=C[N+](=C1)C.CC(=O)[O-],C([O-])(=O)C.C[n+]1ccn(CC)c1,9,1,225,9
273.15,0.1,0.2137,Testing,1-ethyl-3-methylimidazolium acetate,CCN1C=C[N+](=C1)C.CC(=O)[O-],O=C(C)[O-].c1n(c[n+](c1)C)CC,9,1,225,9
273.15,0.1,0.2137,Testing,1-ethyl-3-methylimidazolium acetate,CCN1C=C[N+](=C1)C.CC(=O)[O-],O=C(C)[O-].c1n(CC)cc[n+]1C,9,1,225,9
273.15,0.1,0.2137,Testing,1-ethyl-3-methylimidazolium acetate,CCN1C=C[N+](=C1)C.CC(=O)[O-],C(n1cc[n+](c1)C)C.CC(=O)[O-],9,1,225,9
283.15,0.1,0.2124,Training,1-ethyl-3-methylimidazolium acetate,CCN1C=C[N+](=C1)C.CC(=O)[O-],CC(=O)[O-].CCn1cc[n+](C)c1,9,1,226,9
283.15,0.1,0.2124,Training,1-ethyl-3-methylimidazolium acetate,CCN1C=C[N+](=C1)C.CC(=O)[O-],[O-]C(C)=O.c1n(CC)cc[n+]1C,9,1,226,9
283.15,0.1,0.2124,Training,1-ethyl-3-methylimidazolium acetate,CCN1C=C[N+](=C1)C.CC(=O)[O-],C(=O)([O-])C.c1n(CC)c[n+](c1)C,9,1,226,9
283.15,0.1,0.2124,Training,1-ethyl-3-methylimidazolium acetate,CCN1C=C[N+](=C1)C.CC(=O)[O-],C(=O)(C)[O-].n1(CC)c[n+](cc1)C,9,1,226,9
283.15,0.1,0.2124,Training,1-ethyl-3-methylimidazolium acetate,CCN1C=C[N+](=C1)C.CC(=O)[O-],CC(=O)[O-].[n+]1(cn(CC)cc1)C,9,1,226,9
283.15,0.1,0.2124,Training,1-ethyl-3-methylimidazolium acetate,CCN1C=C[N+](=C1)C.CC(=O)[O-],C([O-])(=O)C.CCn1c[n+](C)cc1,9,1,226,9
283.15,0.1,0.2124,Training,1-ethyl-3-methylimidazolium acetate,CCN1C=C[N+](=C1)C.CC(=O)[O-],[O-]C(C)=O.n1(CC)c[n+](C)cc1,9,1,226,9
283.15,0.1,0.2124,Training,1-ethyl-3-methylimidazolium acetate,CCN1C=C[N+](=C1)C.CC(=O)[O-],CC([O-])=O.CCn1c[n+](cc1)C,9,1,226,9
283.15,0.1,0.2124,Training,1-ethyl-3-methylimidazolium acetate,CCN1C=C[N+](=C1)C.CC(=O)[O-],CC([O-])=O.c1n(c[n+](c1)C)CC,9,1,226,9
283.15,0.1,0.2124,Training,1-ethyl-3-methylimidazolium acetate,CCN1C=C[N+](=C1)C.CC(=O)[O-],CCn1c[n+](C)cc1.[O-]C(=O)C,9,1,226,9
293.15,0.1,0.211,Training,1-ethyl-3-methylimidazolium acetate,CCN1C=C[N+](=C1)C.CC(=O)[O-],CC(=O)[O-].CCn1cc[n+](C)c1,9,1,227,9
293.15,0.1,0.211,Training,1-ethyl-3-methylimidazolium acetate,CCN1C=C[N+](=C1)C.CC(=O)[O-],CC([O-])=O.c1n(CC)c[n+](C)c1,9,1,227,9
293.15,0.1,0.211,Training,1-ethyl-3-methylimidazolium acetate,CCN1C=C[N+](=C1)C.CC(=O)[O-],O=C([O-])C.n1(CC)cc[n+](C)c1,9,1,227,9
293.15,0.1,0.211,Training,1-ethyl-3-methylimidazolium acetate,CCN1C=C[N+](=C1)C.CC(=O)[O-],O=C([O-])C.[n+]1(C)ccn(c1)CC,9,1,227,9
293.15,0.1,0.211,Training,1-ethyl-3-methylimidazolium acetate,CCN1C=C[N+](=C1)C.CC(=O)[O-],C([O-])(C)=O.n1(cc[n+](C)c1)CC,9,1,227,9
293.15,0.1,0.211,Training,1-ethyl-3-methylimidazolium acetate,CCN1C=C[N+](=C1)C.CC(=O)[O-],C(C)n1c[n+](cc1)C.[O-]C(C)=O,9,1,227,9
293.15,0.1,0.211,Training,1-ethyl-3-methylimidazolium acetate,CCN1C=C[N+](=C1)C.CC(=O)[O-],[O-]C(C)=O.n1(c[n+](C)cc1)CC,9,1,227,9
293.15,0.1,0.211,Training,1-ethyl-3-methylimidazolium acetate,CCN1C=C[N+](=C1)C.CC(=O)[O-],CC(=O)[O-].C[n+]1ccn(c1)CC,9,1,227,9
293.15,0.1,0.211,Training,1-ethyl-3-methylimidazolium acetate,CCN1C=C[N+](=C1)C.CC(=O)[O-],C(C)([O-])=O.c1[n+](cn(c1)CC)C,9,1,227,9
293.15,0.1,0.211,Training,1-ethyl-3-methylimidazolium acetate,CCN1C=C[N+](=C1)C.CC(=O)[O-],O=C([O-])C.[n+]1(C)cn(CC)cc1,9,1,227,9
303.15,0.1,0.2102,Training,1-ethyl-3-methylimidazolium acetate,CCN1C=C[N+](=C1)C.CC(=O)[O-],CC(=O)[O-].CCn1cc[n+](C)c1,9,1,228,9
303.15,0.1,0.2102,Training,1-ethyl-3-methylimidazolium acetate,CCN1C=C[N+](=C1)C.CC(=O)[O-],O=C([O-])C.c1[n+](cn(c1)CC)C,9,1,228,9
303.15,0.1,0.2102,Training,1-ethyl-3-methylimidazolium acetate,CCN1C=C[N+](=C1)C.CC(=O)[O-],C(C)(=O)[O-].C(n1c[n+](cc1)C)C,9,1,228,9
303.15,0.1,0.2102,Training,1-ethyl-3-methylimidazolium acetate,CCN1C=C[N+](=C1)C.CC(=O)[O-],CC(=O)[O-].c1[n+](ccn1CC)C,9,1,228,9
303.15,0.1,0.2102,Training,1-ethyl-3-methylimidazolium acetate,CCN1C=C[N+](=C1)C.CC(=O)[O-],C(=O)([O-])C.[n+]1(cn(cc1)CC)C,9,1,228,9
303.15,0.1,0.2102,Training,1-ethyl-3-methylimidazolium acetate,CCN1C=C[N+](=C1)C.CC(=O)[O-],C(=O)(C)[O-].n1(CC)c[n+](cc1)C,9,1,228,9
303.15,0.1,0.2102,Training,1-ethyl-3-methylimidazolium acetate,CCN1C=C[N+](=C1)C.CC(=O)[O-],O=C(C)[O-].n1(c[n+](cc1)C)CC,9,1,228,9
303.15,0.1,0.2102,Training,1-ethyl-3-methylimidazolium acetate,CCN1C=C[N+](=C1)C.CC(=O)[O-],[O-]C(C)=O.c1[n+](cn(c1)CC)C,9,1,228,9
303.15,0.1,0.2102,Training,1-ethyl-3-methylimidazolium acetate,CCN1C=C[N+](=C1)C.CC(=O)[O-],O=C(C)[O-].[n+]1(ccn(CC)c1)C,9,1,228,9
303.15,0.1,0.2102,Training,1-ethyl-3-methylimidazolium acetate,CCN1C=C[N+](=C1)C.CC(=O)[O-],CC(=O)[O-].c1cn(CC)c[n+]1C,9,1,228,9
313.15,0.1,0.2066,Training,1-ethyl-3-methylimidazolium acetate,CCN1C=C[N+](=C1)C.CC(=O)[O-],CC(=O)[O-].CCn1cc[n+](C)c1,9,1,229,9
313.15,0.1,0.2066,Training,1-ethyl-3-methylimidazolium acetate,CCN1C=C[N+](=C1)C.CC(=O)[O-],[O-]C(C)=O.[n+]1(ccn(CC)c1)C,9,1,229,9
313.15,0.1,0.2066,Training,1-ethyl-3-methylimidazolium acetate,CCN1C=C[N+](=C1)C.CC(=O)[O-],C(n1cc[n+](C)c1)C.O=C([O-])C,9,1,229,9
313.15,0.1,0.2066,Training,1-ethyl-3-methylimidazolium acetate,CCN1C=C[N+](=C1)C.CC(=O)[O-],C[n+]1ccn(c1)CC.[O-]C(=O)C,9,1,229,9
313.15,0.1,0.2066,Training,1-ethyl-3-methylimidazolium acetate,CCN1C=C[N+](=C1)C.CC(=O)[O-],O=C(C)[O-].c1cn(CC)c[n+]1C,9,1,229,9
313.15,0.1,0.2066,Training,1-ethyl-3-methylimidazolium acetate,CCN1C=C[N+](=C1)C.CC(=O)[O-],C(n1c[n+](C)cc1)C.O=C([O-])C,9,1,229,9
313.15,0.1,0.2066,Training,1-ethyl-3-methylimidazolium acetate,CCN1C=C[N+](=C1)C.CC(=O)[O-],C(n1c[n+](cc1)C)C.[O-]C(C)=O,9,1,229,9
313.15,0.1,0.2066,Training,1-ethyl-3-methylimidazolium acetate,CCN1C=C[N+](=C1)C.CC(=O)[O-],[O-]C(C)=O.c1[n+](C)ccn1CC,9,1,229,9
313.15,0.1,0.2066,Training,1-ethyl-3-methylimidazolium acetate,CCN1C=C[N+](=C1)C.CC(=O)[O-],C(=O)(C)[O-].C[n+]1ccn(c1)CC,9,1,229,9
313.15,0.1,0.2066,Training,1-ethyl-3-methylimidazolium acetate,CCN1C=C[N+](=C1)C.CC(=O)[O-],CC([O-])=O.c1c[n+](C)cn1CC,9,1,229,9
323.15,0.1,0.2026,Training,1-ethyl-3-methylimidazolium acetate,CCN1C=C[N+](=C1)C.CC(=O)[O-],CC(=O)[O-].CCn1cc[n+](C)c1,9,1,230,9
323.15,0.1,0.2026,Training,1-ethyl-3-methylimidazolium acetate,CCN1C=C[N+](=C1)C.CC(=O)[O-],CCn1cc[n+](c1)C.O=C([O-])C,9,1,230,9
323.15,0.1,0.2026,Training,1-ethyl-3-methylimidazolium acetate,CCN1C=C[N+](=C1)C.CC(=O)[O-],C([O-])(C)=O.C[n+]1ccn(c1)CC,9,1,230,9
323.15,0.1,0.2026,Training,1-ethyl-3-methylimidazolium acetate,CCN1C=C[N+](=C1)C.CC(=O)[O-],[O-]C(=O)C.n1(cc[n+](C)c1)CC,9,1,230,9
323.15,0.1,0.2026,Training,1-ethyl-3-methylimidazolium acetate,CCN1C=C[N+](=C1)C.CC(=O)[O-],CC(=O)[O-].c1[n+](C)ccn1CC,9,1,230,9
323.15,0.1,0.2026,Training,1-ethyl-3-methylimidazolium acetate,CCN1C=C[N+](=C1)C.CC(=O)[O-],C([O-])(=O)C.C[n+]1ccn(c1)CC,9,1,230,9
323.15,0.1,0.2026,Training,1-ethyl-3-methylimidazolium acetate,CCN1C=C[N+](=C1)C.CC(=O)[O-],C(C)n1cc[n+](C)c1.CC([O-])=O,9,1,230,9
323.15,0.1,0.2026,Training,1-ethyl-3-methylimidazolium acetate,CCN1C=C[N+](=C1)C.CC(=O)[O-],C([O-])(=O)C.[n+]1(C)cn(cc1)CC,9,1,230,9
323.15,0.1,0.2026,Training,1-ethyl-3-methylimidazolium acetate,CCN1C=C[N+](=C1)C.CC(=O)[O-],[O-]C(C)=O.c1[n+](cn(c1)CC)C,9,1,230,9
323.15,0.1,0.2026,Training,1-ethyl-3-methylimidazolium acetate,CCN1C=C[N+](=C1)C.CC(=O)[O-],C([O-])(=O)C.c1[n+](ccn1CC)C,9,1,230,9
333.15,0.1,0.2002,Training,1-ethyl-3-methylimidazolium acetate,CCN1C=C[N+](=C1)C.CC(=O)[O-],CC(=O)[O-].CCn1cc[n+](C)c1,9,1,231,9
333.15,0.1,0.2002,Training,1-ethyl-3-methylimidazolium acetate,CCN1C=C[N+](=C1)C.CC(=O)[O-],CC([O-])=O.c1[n+](ccn1CC)C,9,1,231,9
333.15,0.1,0.2002,Training,1-ethyl-3-methylimidazolium acetate,CCN1C=C[N+](=C1)C.CC(=O)[O-],C(n1c[n+](C)cc1)C.[O-]C(C)=O,9,1,231,9
333.15,0.1,0.2002,Training,1-ethyl-3-methylimidazolium acetate,CCN1C=C[N+](=C1)C.CC(=O)[O-],C(C)([O-])=O.C[n+]1ccn(CC)c1,9,1,231,9
333.15,0.1,0.2002,Training,1-ethyl-3-methylimidazolium acetate,CCN1C=C[N+](=C1)C.CC(=O)[O-],CC([O-])=O.[n+]1(ccn(c1)CC)C,9,1,231,9
333.15,0.1,0.2002,Training,1-ethyl-3-methylimidazolium acetate,CCN1C=C[N+](=C1)C.CC(=O)[O-],C(=O)(C)[O-].n1(cc[n+](C)c1)CC,9,1,231,9
333.15,0.1,0.2002,Training,1-ethyl-3-methylimidazolium acetate,CCN1C=C[N+](=C1)C.CC(=O)[O-],C(=O)([O-])C.n1(CC)c[n+](cc1)C,9,1,231,9
333.15,0.1,0.2002,Training,1-ethyl-3-methylimidazolium acetate,CCN1C=C[N+](=C1)C.CC(=O)[O-],C([O-])(=O)C.[n+]1(cn(cc1)CC)C,9,1,231,9
333.15,0.1,0.2002,Training,1-ethyl-3-methylimidazolium acetate,CCN1C=C[N+](=C1)C.CC(=O)[O-],[O-]C(=O)C.c1n(cc[n+]1C)CC,9,1,231,9
333.15,0.1,0.2002,Training,1-ethyl-3-methylimidazolium acetate,CCN1C=C[N+](=C1)C.CC(=O)[O-],C(n1cc[n+](c1)C)C.[O-]C(=O)C,9,1,231,9
343.15,0.1,0.1973,Training,1-ethyl-3-methylimidazolium acetate,CCN1C=C[N+](=C1)C.CC(=O)[O-],CC(=O)[O-].CCn1cc[n+](C)c1,9,1,232,9
343.15,0.1,0.1973,Training,1-ethyl-3-methylimidazolium acetate,CCN1C=C[N+](=C1)C.CC(=O)[O-],C([O-])(=O)C.C[n+]1cn(CC)cc1,9,1,232,9
343.15,0.1,0.1973,Training,1-ethyl-3-methylimidazolium acetate,CCN1C=C[N+](=C1)C.CC(=O)[O-],CC([O-])=O.n1(c[n+](C)cc1)CC,9,1,232,9
343.15,0.1,0.1973,Training,1-ethyl-3-methylimidazolium acetate,CCN1C=C[N+](=C1)C.CC(=O)[O-],C(=O)([O-])C.C(C)n1c[n+](cc1)C,9,1,232,9
343.15,0.1,0.1973,Training,1-ethyl-3-methylimidazolium acetate,CCN1C=C[N+](=C1)C.CC(=O)[O-],O=C([O-])C.c1n(cc[n+]1C)CC,9,1,232,9
343.15,0.1,0.1973,Training,1-ethyl-3-methylimidazolium acetate,CCN1C=C[N+](=C1)C.CC(=O)[O-],C(=O)(C)[O-].n1(CC)c[n+](C)cc1,9,1,232,9
343.15,0.1,0.1973,Training,1-ethyl-3-methylimidazolium acetate,CCN1C=C[N+](=C1)C.CC(=O)[O-],C(C)n1c[n+](cc1)C.[O-]C(C)=O,9,1,232,9
343.15,0.1,0.1973,Training,1-ethyl-3-methylimidazolium acetate,CCN1C=C[N+](=C1)C.CC(=O)[O-],CC([O-])=O.C[n+]1ccn(CC)c1,9,1,232,9
343.15,0.1,0.1973,Training,1-ethyl-3-methylimidazolium acetate,CCN1C=C[N+](=C1)C.CC(=O)[O-],CC([O-])=O.CCn1c[n+](C)cc1,9,1,232,9
343.15,0.1,0.1973,Training,1-ethyl-3-methylimidazolium acetate,CCN1C=C[N+](=C1)C.CC(=O)[O-],CC(=O)[O-].CCn1c[n+](cc1)C,9,1,232,9
353.15,0.1,0.1915,Training,1-ethyl-3-methylimidazolium acetate,CCN1C=C[N+](=C1)C.CC(=O)[O-],CC(=O)[O-].CCn1cc[n+](C)c1,9,1,233,9
353.15,0.1,0.1915,Training,1-ethyl-3-methylimidazolium acetate,CCN1C=C[N+](=C1)C.CC(=O)[O-],CC([O-])=O.C[n+]1ccn(c1)CC,9,1,233,9
353.15,0.1,0.1915,Training,1-ethyl-3-methylimidazolium acetate,CCN1C=C[N+](=C1)C.CC(=O)[O-],CC(=O)[O-].c1cn(CC)c[n+]1C,9,1,233,9
353.15,0.1,0.1915,Training,1-ethyl-3-methylimidazolium acetate,CCN1C=C[N+](=C1)C.CC(=O)[O-],O=C(C)[O-].[n+]1(cn(cc1)CC)C,9,1,233,9
353.15,0.1,0.1915,Training,1-ethyl-3-methylimidazolium acetate,CCN1C=C[N+](=C1)C.CC(=O)[O-],O=C([O-])C.c1n(CC)cc[n+]1C,9,1,233,9
353.15,0.1,0.1915,Training,1-ethyl-3-methylimidazolium acetate,CCN1C=C[N+](=C1)C.CC(=O)[O-],[O-]C(=O)C.c1[n+](cn(CC)c1)C,9,1,233,9
353.15,0.1,0.1915,Training,1-ethyl-3-methylimidazolium acetate,CCN1C=C[N+](=C1)C.CC(=O)[O-],C[n+]1ccn(c1)CC.O=C(C)[O-],9,1,233,9
353.15,0.1,0.1915,Training,1-ethyl-3-methylimidazolium acetate,CCN1C=C[N+](=C1)C.CC(=O)[O-],C(C)([O-])=O.c1c[n+](cn1CC)C,9,1,233,9
353.15,0.1,0.1915,Training,1-ethyl-3-methylimidazolium acetate,CCN1C=C[N+](=C1)C.CC(=O)[O-],O=C(C)[O-].c1c[n+](cn1CC)C,9,1,233,9
273.15,0.1,0.1941,Training,1-ethyl-3-methylimidazolium methylphosphonate,CCN1C=C[N+](=C1)C.CO[P+](=O)[O-],CCn1cc[n+](C)c1.CO[P+](=O)[O-],10,1,234,10
273.15,0.1,0.1941,Training,1-ethyl-3-methylimidazolium methylphosphonate,CCN1C=C[N+](=C1)C.CO[P+](=O)[O-],[O-][P+](OC)=O.n1(CC)cc[n+](C)c1,10,1,234,10
273.15,0.1,0.1941,Training,1-ethyl-3-methylimidazolium methylphosphonate,CCN1C=C[N+](=C1)C.CO[P+](=O)[O-],O([P+]([O-])=O)C.c1[n+](cn(CC)c1)C,10,1,234,10
273.15,0.1,0.1941,Training,1-ethyl-3-methylimidazolium methylphosphonate,CCN1C=C[N+](=C1)C.CO[P+](=O)[O-],C(n1cc[n+](c1)C)C.CO[P+](=O)[O-],10,1,234,10
273.15,0.1,0.1941,Training,1-ethyl-3-methylimidazolium methylphosphonate,CCN1C=C[N+](=C1)C.CO[P+](=O)[O-],[P+](=O)([O-])OC.c1c[n+](cn1CC)C,10,1,234,10
273.15,0.1,0.1941,Training,1-ethyl-3-methylimidazolium methylphosphonate,CCN1C=C[N+](=C1)C.CO[P+](=O)[O-],O=[P+](OC)[O-].[n+]1(cn(CC)cc1)C,10,1,234,10
273.15,0.1,0.1941,Training,1-ethyl-3-methylimidazolium methylphosphonate,CCN1C=C[N+](=C1)C.CO[P+](=O)[O-],CO[P+]([O-])=O.c1c[n+](C)cn1CC,10,1,234,10
273.15,0.1,0.1941,Training,1-ethyl-3-methylimidazolium methylphosphonate,CCN1C=C[N+](=C1)C.CO[P+](=O)[O-],CO[P+]([O-])=O.c1n(CC)cc[n+]1C,10,1,234,10
273.15,0.1,0.1941,Training,1-ethyl-3-methylimidazolium methylphosphonate,CCN1C=C[N+](=C1)C.CO[P+](=O)[O-],[P+](OC)([O-])=O.c1[n+](ccn1CC)C,10,1,234,10
273.15,0.1,0.1941,Training,1-ethyl-3-methylimidazolium methylphosphonate,CCN1C=C[N+](=C1)C.CO[P+](=O)[O-],C[n+]1cn(cc1)CC.O=[P+]([O-])OC,10,1,234,10
283.15,0.1,0.1948,Training,1-ethyl-3-methylimidazolium methylphosphonate,CCN1C=C[N+](=C1)C.CO[P+](=O)[O-],CCn1cc[n+](C)c1.CO[P+](=O)[O-],10,1,235,10
283.15,0.1,0.1948,Training,1-ethyl-3-methylimidazolium methylphosphonate,CCN1C=C[N+](=C1)C.CO[P+](=O)[O-],C[n+]1cn(cc1)CC.[P+](=O)([O-])OC,10,1,235,10
283.15,0.1,0.1948,Training,1-ethyl-3-methylimidazolium methylphosphonate,CCN1C=C[N+](=C1)C.CO[P+](=O)[O-],CCn1c[n+](C)cc1.[O-][P+](OC)=O,10,1,235,10
283.15,0.1,0.1948,Training,1-ethyl-3-methylimidazolium methylphosphonate,CCN1C=C[N+](=C1)C.CO[P+](=O)[O-],O=[P+](OC)[O-].c1n(CC)c[n+](C)c1,10,1,235,10
283.15,0.1,0.1948,Training,1-ethyl-3-methylimidazolium methylphosphonate,CCN1C=C[N+](=C1)C.CO[P+](=O)[O-],CO[P+]([O-])=O.C[n+]1cn(cc1)CC,10,1,235,10