T/K,P/MPa,TC/W m-1 K-1,Data type,Name,SMILES,Normalized SMILES,index,P/bar,RANDOM,IL
313.15,0.1,0.1305,Training,1-butyl-3-methylimidazolium hexafluoroantimonate,CCCCN1C=C[N+](=C1)C.F[Sb-](F)(F)(F)(F)F,C(CCn1cc[n+](c1)C)C.F[Sb-](F)(F)(F)(F)F,7,1,180,7
313.15,0.1,0.1305,Training,1-butyl-3-methylimidazolium hexafluoroantimonate,CCCCN1C=C[N+](=C1)C.F[Sb-](F)(F)(F)(F)F,CCCCn1c[n+](C)cc1.F[Sb-](F)(F)(F)(F)F,7,1,180,7
313.15,0.1,0.1305,Training,1-butyl-3-methylimidazolium hexafluoroantimonate,CCCCN1C=C[N+](=C1)C.F[Sb-](F)(F)(F)(F)F,C[n+]1ccn(CCCC)c1.F[Sb-](F)(F)(F)(F)F,7,1,180,7
313.15,0.1,0.1305,Training,1-butyl-3-methylimidazolium hexafluoroantimonate,CCCCN1C=C[N+](=C1)C.F[Sb-](F)(F)(F)(F)F,C[n+]1cn(CCCC)cc1.F[Sb-](F)(F)(F)(F)F,7,1,180,7
313.15,0.1,0.1305,Training,1-butyl-3-methylimidazolium hexafluoroantimonate,CCCCN1C=C[N+](=C1)C.F[Sb-](F)(F)(F)(F)F,C(n1c[n+](cc1)C)CCC.F[Sb-](F)(F)(F)(F)F,7,1,180,7
313.15,0.1,0.1305,Training,1-butyl-3-methylimidazolium hexafluoroantimonate,CCCCN1C=C[N+](=C1)C.F[Sb-](F)(F)(F)(F)F,F[Sb-](F)(F)(F)(F)F.c1[n+](ccn1CCCC)C,7,1,180,7
313.15,5.0,0.133,Training,1-butyl-3-methylimidazolium hexafluoroantimonate,CCCCN1C=C[N+](=C1)C.F[Sb-](F)(F)(F)(F)F,CCCCn1cc[n+](C)c1.F[Sb-](F)(F)(F)(F)F,7,50,181,7
313.15,5.0,0.133,Training,1-butyl-3-methylimidazolium hexafluoroantimonate,CCCCN1C=C[N+](=C1)C.F[Sb-](F)(F)(F)(F)F,F[Sb-](F)(F)(F)(F)F.n1(cc[n+](c1)C)CCCC,7,50,181,7
313.15,5.0,0.133,Training,1-butyl-3-methylimidazolium hexafluoroantimonate,CCCCN1C=C[N+](=C1)C.F[Sb-](F)(F)(F)(F)F,CCCCn1cc[n+](c1)C.F[Sb-](F)(F)(F)(F)F,7,50,181,7
313.15,5.0,0.133,Training,1-butyl-3-methylimidazolium hexafluoroantimonate,CCCCN1C=C[N+](=C1)C.F[Sb-](F)(F)(F)(F)F,C(n1cc[n+](c1)C)CCC.F[Sb-](F)(F)(F)(F)F,7,50,181,7
313.15,5.0,0.133,Training,1-butyl-3-methylimidazolium hexafluoroantimonate,CCCCN1C=C[N+](=C1)C.F[Sb-](F)(F)(F)(F)F,F[Sb-](F)(F)(F)(F)F.n1(c[n+](cc1)C)CCCC,7,50,181,7
313.15,5.0,0.133,Training,1-butyl-3-methylimidazolium hexafluoroantimonate,CCCCN1C=C[N+](=C1)C.F[Sb-](F)(F)(F)(F)F,F[Sb-](F)(F)(F)(F)F.[n+]1(cn(CCCC)cc1)C,7,50,181,7
313.15,5.0,0.133,Training,1-butyl-3-methylimidazolium hexafluoroantimonate,CCCCN1C=C[N+](=C1)C.F[Sb-](F)(F)(F)(F)F,C(CCC)n1cc[n+](C)c1.[Sb-](F)(F)(F)(F)(F)F,7,50,181,7
313.15,5.0,0.133,Training,1-butyl-3-methylimidazolium hexafluoroantimonate,CCCCN1C=C[N+](=C1)C.F[Sb-](F)(F)(F)(F)F,F[Sb-](F)(F)(F)(F)F.n1(cc[n+](C)c1)CCCC,7,50,181,7
313.15,5.0,0.133,Training,1-butyl-3-methylimidazolium hexafluoroantimonate,CCCCN1C=C[N+](=C1)C.F[Sb-](F)(F)(F)(F)F,F[Sb-](F)(F)(F)(F)F.c1[n+](cn(c1)CCCC)C,7,50,181,7
313.15,5.0,0.133,Training,1-butyl-3-methylimidazolium hexafluoroantimonate,CCCCN1C=C[N+](=C1)C.F[Sb-](F)(F)(F)(F)F,F[Sb-](F)(F)(F)(F)F.[n+]1(C)ccn(CCCC)c1,7,50,181,7
313.15,10.0,0.1332,Training,1-butyl-3-methylimidazolium hexafluoroantimonate,CCCCN1C=C[N+](=C1)C.F[Sb-](F)(F)(F)(F)F,CCCCn1cc[n+](C)c1.F[Sb-](F)(F)(F)(F)F,7,100,182,7
313.15,10.0,0.1332,Training,1-butyl-3-methylimidazolium hexafluoroantimonate,CCCCN1C=C[N+](=C1)C.F[Sb-](F)(F)(F)(F)F,C(Cn1c[n+](cc1)C)CC.F[Sb-](F)(F)(F)(F)F,7,100,182,7
313.15,10.0,0.1332,Training,1-butyl-3-methylimidazolium hexafluoroantimonate,CCCCN1C=C[N+](=C1)C.F[Sb-](F)(F)(F)(F)F,F[Sb-](F)(F)(F)(F)F.n1(c[n+](C)cc1)CCCC,7,100,182,7
313.15,10.0,0.1332,Training,1-butyl-3-methylimidazolium hexafluoroantimonate,CCCCN1C=C[N+](=C1)C.F[Sb-](F)(F)(F)(F)F,C(Cn1cc[n+](c1)C)CC.F[Sb-](F)(F)(F)(F)F,7,100,182,7
313.15,10.0,0.1332,Training,1-butyl-3-methylimidazolium hexafluoroantimonate,CCCCN1C=C[N+](=C1)C.F[Sb-](F)(F)(F)(F)F,F[Sb-](F)(F)(F)(F)F.c1[n+](cn(c1)CCCC)C,7,100,182,7
313.15,10.0,0.1332,Training,1-butyl-3-methylimidazolium hexafluoroantimonate,CCCCN1C=C[N+](=C1)C.F[Sb-](F)(F)(F)(F)F,F[Sb-](F)(F)(F)(F)F.[n+]1(C)ccn(c1)CCCC,7,100,182,7
313.15,10.0,0.1332,Training,1-butyl-3-methylimidazolium hexafluoroantimonate,CCCCN1C=C[N+](=C1)C.F[Sb-](F)(F)(F)(F)F,F[Sb-](F)(F)(F)(F)F.c1n(CCCC)c[n+](C)c1,7,100,182,7
313.15,10.0,0.1332,Training,1-butyl-3-methylimidazolium hexafluoroantimonate,CCCCN1C=C[N+](=C1)C.F[Sb-](F)(F)(F)(F)F,F[Sb-](F)(F)(F)(F)F.c1n(CCCC)cc[n+]1C,7,100,182,7
313.15,10.0,0.1332,Training,1-butyl-3-methylimidazolium hexafluoroantimonate,CCCCN1C=C[N+](=C1)C.F[Sb-](F)(F)(F)(F)F,[Sb-](F)(F)(F)(F)(F)F.[n+]1(cn(CCCC)cc1)C,7,100,182,7
313.15,20.0,0.136,Training,1-butyl-3-methylimidazolium hexafluoroantimonate,CCCCN1C=C[N+](=C1)C.F[Sb-](F)(F)(F)(F)F,CCCCn1cc[n+](C)c1.F[Sb-](F)(F)(F)(F)F,7,200,183,7
313.15,20.0,0.136,Training,1-butyl-3-methylimidazolium hexafluoroantimonate,CCCCN1C=C[N+](=C1)C.F[Sb-](F)(F)(F)(F)F,C(CCC)n1cc[n+](c1)C.F[Sb-](F)(F)(F)(F)F,7,200,183,7
313.15,20.0,0.136,Training,1-butyl-3-methylimidazolium hexafluoroantimonate,CCCCN1C=C[N+](=C1)C.F[Sb-](F)(F)(F)(F)F,C[n+]1cn(CCCC)cc1.F[Sb-](F)(F)(F)(F)F,7,200,183,7
313.15,20.0,0.136,Training,1-butyl-3-methylimidazolium hexafluoroantimonate,CCCCN1C=C[N+](=C1)C.F[Sb-](F)(F)(F)(F)F,F[Sb-](F)(F)(F)(F)F.c1n(CCCC)c[n+](C)c1,7,200,183,7
313.15,20.0,0.136,Training,1-butyl-3-methylimidazolium hexafluoroantimonate,CCCCN1C=C[N+](=C1)C.F[Sb-](F)(F)(F)(F)F,F[Sb-](F)(F)(F)(F)F.[n+]1(C)cn(cc1)CCCC,7,200,183,7
313.15,20.0,0.136,Training,1-butyl-3-methylimidazolium hexafluoroantimonate,CCCCN1C=C[N+](=C1)C.F[Sb-](F)(F)(F)(F)F,[Sb-](F)(F)(F)(F)(F)F.n1(cc[n+](C)c1)CCCC,7,200,183,7
313.15,20.0,0.136,Training,1-butyl-3-methylimidazolium hexafluoroantimonate,CCCCN1C=C[N+](=C1)C.F[Sb-](F)(F)(F)(F)F,C[n+]1ccn(c1)CCCC.F[Sb-](F)(F)(F)(F)F,7,200,183,7
313.15,20.0,0.136,Training,1-butyl-3-methylimidazolium hexafluoroantimonate,CCCCN1C=C[N+](=C1)C.F[Sb-](F)(F)(F)(F)F,F[Sb-](F)(F)(F)(F)F.[n+]1(C)ccn(CCCC)c1,7,200,183,7
313.15,20.0,0.136,Training,1-butyl-3-methylimidazolium hexafluoroantimonate,CCCCN1C=C[N+](=C1)C.F[Sb-](F)(F)(F)(F)F,F[Sb-](F)(F)(F)(F)F.c1c[n+](cn1CCCC)C,7,200,183,7
313.15,30.0,0.1381,Training,1-butyl-3-methylimidazolium hexafluoroantimonate,CCCCN1C=C[N+](=C1)C.F[Sb-](F)(F)(F)(F)F,CCCCn1cc[n+](C)c1.F[Sb-](F)(F)(F)(F)F,7,300,184,7
313.15,30.0,0.1381,Training,1-butyl-3-methylimidazolium hexafluoroantimonate,CCCCN1C=C[N+](=C1)C.F[Sb-](F)(F)(F)(F)F,C(C)CCn1cc[n+](C)c1.F[Sb-](F)(F)(F)(F)F,7,300,184,7
313.15,30.0,0.1381,Training,1-butyl-3-methylimidazolium hexafluoroantimonate,CCCCN1C=C[N+](=C1)C.F[Sb-](F)(F)(F)(F)F,F[Sb-](F)(F)(F)(F)F.c1n(CCCC)cc[n+]1C,7,300,184,7
313.15,30.0,0.1381,Training,1-butyl-3-methylimidazolium hexafluoroantimonate,CCCCN1C=C[N+](=C1)C.F[Sb-](F)(F)(F)(F)F,C(CC)Cn1cc[n+](c1)C.F[Sb-](F)(F)(F)(F)F,7,300,184,7
313.15,30.0,0.1381,Training,1-butyl-3-methylimidazolium hexafluoroantimonate,CCCCN1C=C[N+](=C1)C.F[Sb-](F)(F)(F)(F)F,F[Sb-](F)(F)(F)(F)F.c1c[n+](C)cn1CCCC,7,300,184,7
313.15,30.0,0.1381,Training,1-butyl-3-methylimidazolium hexafluoroantimonate,CCCCN1C=C[N+](=C1)C.F[Sb-](F)(F)(F)(F)F,C(Cn1c[n+](cc1)C)CC.F[Sb-](F)(F)(F)(F)F,7,300,184,7
313.15,30.0,0.1381,Training,1-butyl-3-methylimidazolium hexafluoroantimonate,CCCCN1C=C[N+](=C1)C.F[Sb-](F)(F)(F)(F)F,C(CCC)n1c[n+](cc1)C.F[Sb-](F)(F)(F)(F)F,7,300,184,7
313.15,30.0,0.1381,Training,1-butyl-3-methylimidazolium hexafluoroantimonate,CCCCN1C=C[N+](=C1)C.F[Sb-](F)(F)(F)(F)F,C(C)CCn1c[n+](cc1)C.F[Sb-](F)(F)(F)(F)F,7,300,184,7
313.15,30.0,0.1381,Training,1-butyl-3-methylimidazolium hexafluoroantimonate,CCCCN1C=C[N+](=C1)C.F[Sb-](F)(F)(F)(F)F,F[Sb-](F)(F)(F)(F)F.c1[n+](C)cn(c1)CCCC,7,300,184,7
313.15,30.0,0.1381,Training,1-butyl-3-methylimidazolium hexafluoroantimonate,CCCCN1C=C[N+](=C1)C.F[Sb-](F)(F)(F)(F)F,CCCCn1c[n+](C)cc1.F[Sb-](F)(F)(F)(F)F,7,300,184,7
313.15,40.0,0.1402,Testing,1-butyl-3-methylimidazolium hexafluoroantimonate,CCCCN1C=C[N+](=C1)C.F[Sb-](F)(F)(F)(F)F,CCCCn1cc[n+](C)c1.F[Sb-](F)(F)(F)(F)F,7,400,185,7
313.15,40.0,0.1402,Testing,1-butyl-3-methylimidazolium hexafluoroantimonate,CCCCN1C=C[N+](=C1)C.F[Sb-](F)(F)(F)(F)F,F[Sb-](F)(F)(F)(F)F.c1[n+](cn(CCCC)c1)C,7,400,185,7
313.15,40.0,0.1402,Testing,1-butyl-3-methylimidazolium hexafluoroantimonate,CCCCN1C=C[N+](=C1)C.F[Sb-](F)(F)(F)(F)F,C(CCn1c[n+](cc1)C)C.F[Sb-](F)(F)(F)(F)F,7,400,185,7
313.15,40.0,0.1402,Testing,1-butyl-3-methylimidazolium hexafluoroantimonate,CCCCN1C=C[N+](=C1)C.F[Sb-](F)(F)(F)(F)F,F[Sb-](F)(F)(F)(F)F.c1n(c[n+](c1)C)CCCC,7,400,185,7
313.15,40.0,0.1402,Testing,1-butyl-3-methylimidazolium hexafluoroantimonate,CCCCN1C=C[N+](=C1)C.F[Sb-](F)(F)(F)(F)F,F[Sb-](F)(F)(F)(F)F.c1[n+](ccn1CCCC)C,7,400,185,7
313.15,40.0,0.1402,Testing,1-butyl-3-methylimidazolium hexafluoroantimonate,CCCCN1C=C[N+](=C1)C.F[Sb-](F)(F)(F)(F)F,F[Sb-](F)(F)(F)(F)F.[n+]1(C)ccn(CCCC)c1,7,400,185,7
313.15,40.0,0.1402,Testing,1-butyl-3-methylimidazolium hexafluoroantimonate,CCCCN1C=C[N+](=C1)C.F[Sb-](F)(F)(F)(F)F,C(CCn1cc[n+](C)c1)C.F[Sb-](F)(F)(F)(F)F,7,400,185,7
313.15,40.0,0.1402,Testing,1-butyl-3-methylimidazolium hexafluoroantimonate,CCCCN1C=C[N+](=C1)C.F[Sb-](F)(F)(F)(F)F,[Sb-](F)(F)(F)(F)(F)F.c1n(cc[n+]1C)CCCC,7,400,185,7
313.15,40.0,0.1402,Testing,1-butyl-3-methylimidazolium hexafluoroantimonate,CCCCN1C=C[N+](=C1)C.F[Sb-](F)(F)(F)(F)F,F[Sb-](F)(F)(F)(F)F.c1n(CCCC)c[n+](c1)C,7,400,185,7
313.15,40.0,0.1402,Testing,1-butyl-3-methylimidazolium hexafluoroantimonate,CCCCN1C=C[N+](=C1)C.F[Sb-](F)(F)(F)(F)F,C(n1cc[n+](C)c1)CCC.F[Sb-](F)(F)(F)(F)F,7,400,185,7
313.15,50.0,0.1426,Training,1-butyl-3-methylimidazolium hexafluoroantimonate,CCCCN1C=C[N+](=C1)C.F[Sb-](F)(F)(F)(F)F,CCCCn1cc[n+](C)c1.F[Sb-](F)(F)(F)(F)F,7,500,186,7
313.15,50.0,0.1426,Training,1-butyl-3-methylimidazolium hexafluoroantimonate,CCCCN1C=C[N+](=C1)C.F[Sb-](F)(F)(F)(F)F,F[Sb-](F)(F)(F)(F)F.n1(c[n+](cc1)C)CCCC,7,500,186,7
313.15,50.0,0.1426,Training,1-butyl-3-methylimidazolium hexafluoroantimonate,CCCCN1C=C[N+](=C1)C.F[Sb-](F)(F)(F)(F)F,C(n1c[n+](C)cc1)CCC.F[Sb-](F)(F)(F)(F)F,7,500,186,7
313.15,50.0,0.1426,Training,1-butyl-3-methylimidazolium hexafluoroantimonate,CCCCN1C=C[N+](=C1)C.F[Sb-](F)(F)(F)(F)F,C(C)CCn1cc[n+](C)c1.F[Sb-](F)(F)(F)(F)F,7,500,186,7
313.15,50.0,0.1426,Training,1-butyl-3-methylimidazolium hexafluoroantimonate,CCCCN1C=C[N+](=C1)C.F[Sb-](F)(F)(F)(F)F,F[Sb-](F)(F)(F)(F)F.n1(CCCC)c[n+](cc1)C,7,500,186,7
313.15,50.0,0.1426,Training,1-butyl-3-methylimidazolium hexafluoroantimonate,CCCCN1C=C[N+](=C1)C.F[Sb-](F)(F)(F)(F)F,F[Sb-](F)(F)(F)(F)F.c1n(CCCC)c[n+](c1)C,7,500,186,7
313.15,50.0,0.1426,Training,1-butyl-3-methylimidazolium hexafluoroantimonate,CCCCN1C=C[N+](=C1)C.F[Sb-](F)(F)(F)(F)F,[Sb-](F)(F)(F)(F)(F)F.[n+]1(cn(CCCC)cc1)C,7,500,186,7
313.15,50.0,0.1426,Training,1-butyl-3-methylimidazolium hexafluoroantimonate,CCCCN1C=C[N+](=C1)C.F[Sb-](F)(F)(F)(F)F,C(n1c[n+](C)cc1)CCC.[Sb-](F)(F)(F)(F)(F)F,7,500,186,7
313.15,50.0,0.1426,Training,1-butyl-3-methylimidazolium hexafluoroantimonate,CCCCN1C=C[N+](=C1)C.F[Sb-](F)(F)(F)(F)F,C(n1c[n+](cc1)C)CCC.F[Sb-](F)(F)(F)(F)F,7,500,186,7
313.15,60.0,0.1427,Training,1-butyl-3-methylimidazolium hexafluoroantimonate,CCCCN1C=C[N+](=C1)C.F[Sb-](F)(F)(F)(F)F,CCCCn1cc[n+](C)c1.F[Sb-](F)(F)(F)(F)F,7,600,187,7
313.15,60.0,0.1427,Training,1-butyl-3-methylimidazolium hexafluoroantimonate,CCCCN1C=C[N+](=C1)C.F[Sb-](F)(F)(F)(F)F,C(CCC)n1c[n+](cc1)C.F[Sb-](F)(F)(F)(F)F,7,600,187,7
313.15,60.0,0.1427,Training,1-butyl-3-methylimidazolium hexafluoroantimonate,CCCCN1C=C[N+](=C1)C.F[Sb-](F)(F)(F)(F)F,C(CCn1cc[n+](C)c1)C.F[Sb-](F)(F)(F)(F)F,7,600,187,7
313.15,60.0,0.1427,Training,1-butyl-3-methylimidazolium hexafluoroantimonate,CCCCN1C=C[N+](=C1)C.F[Sb-](F)(F)(F)(F)F,C[n+]1ccn(CCCC)c1.F[Sb-](F)(F)(F)(F)F,7,600,187,7
313.15,60.0,0.1427,Training,1-butyl-3-methylimidazolium hexafluoroantimonate,CCCCN1C=C[N+](=C1)C.F[Sb-](F)(F)(F)(F)F,F[Sb-](F)(F)(F)(F)F.[n+]1(C)cn(CCCC)cc1,7,600,187,7
313.15,60.0,0.1427,Training,1-butyl-3-methylimidazolium hexafluoroantimonate,CCCCN1C=C[N+](=C1)C.F[Sb-](F)(F)(F)(F)F,C(Cn1c[n+](C)cc1)CC.F[Sb-](F)(F)(F)(F)F,7,600,187,7
313.15,60.0,0.1427,Training,1-butyl-3-methylimidazolium hexafluoroantimonate,CCCCN1C=C[N+](=C1)C.F[Sb-](F)(F)(F)(F)F,C(C)CCn1c[n+](C)cc1.F[Sb-](F)(F)(F)(F)F,7,600,187,7
313.15,60.0,0.1427,Training,1-butyl-3-methylimidazolium hexafluoroantimonate,CCCCN1C=C[N+](=C1)C.F[Sb-](F)(F)(F)(F)F,C(CCC)n1cc[n+](c1)C.F[Sb-](F)(F)(F)(F)F,7,600,187,7
313.15,60.0,0.1427,Training,1-butyl-3-methylimidazolium hexafluoroantimonate,CCCCN1C=C[N+](=C1)C.F[Sb-](F)(F)(F)(F)F,C[n+]1cn(cc1)CCCC.F[Sb-](F)(F)(F)(F)F,7,600,187,7
313.15,65.0,0.1454,Training,1-butyl-3-methylimidazolium hexafluoroantimonate,CCCCN1C=C[N+](=C1)C.F[Sb-](F)(F)(F)(F)F,CCCCn1cc[n+](C)c1.F[Sb-](F)(F)(F)(F)F,7,650,188,7
313.15,65.0,0.1454,Training,1-butyl-3-methylimidazolium hexafluoroantimonate,CCCCN1C=C[N+](=C1)C.F[Sb-](F)(F)(F)(F)F,CCCCn1c[n+](C)cc1.F[Sb-](F)(F)(F)(F)F,7,650,188,7
313.15,65.0,0.1454,Training,1-butyl-3-methylimidazolium hexafluoroantimonate,CCCCN1C=C[N+](=C1)C.F[Sb-](F)(F)(F)(F)F,F[Sb-](F)(F)(F)(F)F.[n+]1(ccn(CCCC)c1)C,7,650,188,7
313.15,65.0,0.1454,Training,1-butyl-3-methylimidazolium hexafluoroantimonate,CCCCN1C=C[N+](=C1)C.F[Sb-](F)(F)(F)(F)F,C(CC)Cn1cc[n+](c1)C.F[Sb-](F)(F)(F)(F)F,7,650,188,7
313.15,65.0,0.1454,Training,1-butyl-3-methylimidazolium hexafluoroantimonate,CCCCN1C=C[N+](=C1)C.F[Sb-](F)(F)(F)(F)F,C[n+]1ccn(CCCC)c1.[Sb-](F)(F)(F)(F)(F)F,7,650,188,7
313.15,65.0,0.1454,Training,1-butyl-3-methylimidazolium hexafluoroantimonate,CCCCN1C=C[N+](=C1)C.F[Sb-](F)(F)(F)(F)F,C(CC)Cn1cc[n+](C)c1.[Sb-](F)(F)(F)(F)(F)F,7,650,188,7
313.15,65.0,0.1454,Training,1-butyl-3-methylimidazolium hexafluoroantimonate,CCCCN1C=C[N+](=C1)C.F[Sb-](F)(F)(F)(F)F,F[Sb-](F)(F)(F)(F)F.c1[n+](cn(c1)CCCC)C,7,650,188,7
313.15,65.0,0.1454,Training,1-butyl-3-methylimidazolium hexafluoroantimonate,CCCCN1C=C[N+](=C1)C.F[Sb-](F)(F)(F)(F)F,[Sb-](F)(F)(F)(F)(F)F.[n+]1(C)cn(CCCC)cc1,7,650,188,7
313.15,65.0,0.1454,Training,1-butyl-3-methylimidazolium hexafluoroantimonate,CCCCN1C=C[N+](=C1)C.F[Sb-](F)(F)(F)(F)F,F[Sb-](F)(F)(F)(F)F.[n+]1(C)ccn(c1)CCCC,7,650,188,7
313.15,65.0,0.1454,Training,1-butyl-3-methylimidazolium hexafluoroantimonate,CCCCN1C=C[N+](=C1)C.F[Sb-](F)(F)(F)(F)F,F[Sb-](F)(F)(F)(F)F.c1cn(CCCC)c[n+]1C,7,650,188,7
283.15,0.1,0.1774,Training,1-butyl-3-methylimidazolium dicyanamide,CCCCN1C=C[N+](=C1)C.C(=[N-])=NC#N,CCCCn1cc[n+](C)c1.N#CN=C=[N-],8,1,189,8
283.15,0.1,0.1774,Training,1-butyl-3-methylimidazolium dicyanamide,CCCCN1C=C[N+](=C1)C.C(=[N-])=NC#N,[N-]=C=NC#N.n1(cc[n+](c1)C)CCCC,8,1,189,8
283.15,0.1,0.1774,Training,1-butyl-3-methylimidazolium dicyanamide,CCCCN1C=C[N+](=C1)C.C(=[N-])=NC#N,C(CC)Cn1c[n+](cc1)C.[N-]=C=NC#N,8,1,189,8
283.15,0.1,0.1774,Training,1-butyl-3-methylimidazolium dicyanamide,CCCCN1C=C[N+](=C1)C.C(=[N-])=NC#N,C(#N)N=C=[N-].[n+]1(C)cn(cc1)CCCC,8,1,189,8
283.15,0.1,0.1774,Training,1-butyl-3-methylimidazolium dicyanamide,CCCCN1C=C[N+](=C1)C.C(=[N-])=NC#N,C(=[N-])=NC#N.[n+]1(C)cn(CCCC)cc1,8,1,189,8
283.15,0.1,0.1774,Training,1-butyl-3-methylimidazolium dicyanamide,CCCCN1C=C[N+](=C1)C.C(=[N-])=NC#N,C(#N)N=C=[N-].c1c[n+](C)cn1CCCC,8,1,189,8
283.15,0.1,0.1774,Training,1-butyl-3-methylimidazolium dicyanamide,CCCCN1C=C[N+](=C1)C.C(=[N-])=NC#N,N#CN=C=[N-].c1cn(CCCC)c[n+]1C,8,1,189,8
283.15,0.1,0.1774,Training,1-butyl-3-methylimidazolium dicyanamide,CCCCN1C=C[N+](=C1)C.C(=[N-])=NC#N,C[n+]1ccn(CCCC)c1.N#CN=C=[N-],8,1,189,8
283.15,0.1,0.1774,Training,1-butyl-3-methylimidazolium dicyanamide,CCCCN1C=C[N+](=C1)C.C(=[N-])=NC#N,N(C#N)=C=[N-].[n+]1(C)ccn(c1)CCCC,8,1,189,8
283.15,0.1,0.1774,Training,1-butyl-3-methylimidazolium dicyanamide,CCCCN1C=C[N+](=C1)C.C(=[N-])=NC#N,C(N=C=[N-])#N.[n+]1(ccn(c1)CCCC)C,8,1,189,8
283.15,5.0,0.1817,Training,1-butyl-3-methylimidazolium dicyanamide,CCCCN1C=C[N+](=C1)C.C(=[N-])=NC#N,CCCCn1cc[n+](C)c1.N#CN=C=[N-],8,50,190,8
283.15,5.0,0.1817,Training,1-butyl-3-methylimidazolium dicyanamide,CCCCN1C=C[N+](=C1)C.C(=[N-])=NC#N,C(C)CCn1cc[n+](c1)C.[N-]=C=NC#N,8,50,190,8
283.15,5.0,0.1817,Training,1-butyl-3-methylimidazolium dicyanamide,CCCCN1C=C[N+](=C1)C.C(=[N-])=NC#N,C(n1cc[n+](C)c1)CCC.N(=C=[N-])C#N,8,50,190,8
283.15,5.0,0.1817,Training,1-butyl-3-methylimidazolium dicyanamide,CCCCN1C=C[N+](=C1)C.C(=[N-])=NC#N,[N-]=C=NC#N.n1(CCCC)cc[n+](c1)C,8,50,190,8
283.15,5.0,0.1817,Training,1-butyl-3-methylimidazolium dicyanamide,CCCCN1C=C[N+](=C1)C.C(=[N-])=NC#N,C(n1cc[n+](c1)C)CCC.N(C#N)=C=[N-],8,50,190,8
283.15,5.0,0.1817,Training,1-butyl-3-methylimidazolium dicyanamide,CCCCN1C=C[N+](=C1)C.C(=[N-])=NC#N,C(#N)N=C=[N-].CCCCn1c[n+](C)cc1,8,50,190,8
283.15,5.0,0.1817,Training,1-butyl-3-methylimidazolium dicyanamide,CCCCN1C=C[N+](=C1)C.C(=[N-])=NC#N,[N-]=C=NC#N.[n+]1(C)cn(cc1)CCCC,8,50,190,8
283.15,5.0,0.1817,Training,1-butyl-3-methylimidazolium dicyanamide,CCCCN1C=C[N+](=C1)C.C(=[N-])=NC#N,C(N=C=[N-])#N.C[n+]1cn(cc1)CCCC,8,50,190,8
283.15,5.0,0.1817,Training,1-butyl-3-methylimidazolium dicyanamide,CCCCN1C=C[N+](=C1)C.C(=[N-])=NC#N,C(Cn1c[n+](cc1)C)CC.N(C#N)=C=[N-],8,50,190,8
283.15,5.0,0.1817,Training,1-butyl-3-methylimidazolium dicyanamide,CCCCN1C=C[N+](=C1)C.C(=[N-])=NC#N,C(#N)N=C=[N-].C(CC)Cn1cc[n+](c1)C,8,50,190,8
283.15,10.0,0.1826,Training,1-butyl-3-methylimidazolium dicyanamide,CCCCN1C=C[N+](=C1)C.C(=[N-])=NC#N,CCCCn1cc[n+](C)c1.N#CN=C=[N-],8,100,191,8
283.15,10.0,0.1826,Training,1-butyl-3-methylimidazolium dicyanamide,CCCCN1C=C[N+](=C1)C.C(=[N-])=NC#N,C(#N)N=C=[N-].c1[n+](ccn1CCCC)C,8,100,191,8
283.15,10.0,0.1826,Training,1-butyl-3-methylimidazolium dicyanamide,CCCCN1C=C[N+](=C1)C.C(=[N-])=NC#N,C[n+]1cn(CCCC)cc1.[N-]=C=NC#N,8,100,191,8
283.15,10.0,0.1826,Training,1-butyl-3-methylimidazolium dicyanamide,CCCCN1C=C[N+](=C1)C.C(=[N-])=NC#N,C(n1c[n+](C)cc1)CCC.N#CN=C=[N-],8,100,191,8
283.15,10.0,0.1826,Training,1-butyl-3-methylimidazolium dicyanamide,CCCCN1C=C[N+](=C1)C.C(=[N-])=NC#N,C(Cn1cc[n+](c1)C)CC.N(C#N)=C=[N-],8,100,191,8
283.15,10.0,0.1826,Training,1-butyl-3-methylimidazolium dicyanamide,CCCCN1C=C[N+](=C1)C.C(=[N-])=NC#N,N(=C=[N-])C#N.[n+]1(C)cn(cc1)CCCC,8,100,191,8
283.15,10.0,0.1826,Training,1-butyl-3-methylimidazolium dicyanamide,CCCCN1C=C[N+](=C1)C.C(=[N-])=NC#N,C(=NC#N)=[N-].[n+]1(cn(cc1)CCCC)C,8,100,191,8
283.15,10.0,0.1826,Training,1-butyl-3-methylimidazolium dicyanamide,CCCCN1C=C[N+](=C1)C.C(=[N-])=NC#N,C(CCC)n1c[n+](cc1)C.N#CN=C=[N-],8,100,191,8
283.15,10.0,0.1826,Training,1-butyl-3-methylimidazolium dicyanamide,CCCCN1C=C[N+](=C1)C.C(=[N-])=NC#N,[N-]=C=NC#N.c1cn(c[n+]1C)CCCC,8,100,191,8
283.15,10.0,0.1826,Training,1-butyl-3-methylimidazolium dicyanamide,CCCCN1C=C[N+](=C1)C.C(=[N-])=NC#N,C(=NC#N)=[N-].CCCCn1c[n+](C)cc1,8,100,191,8
283.15,20.0,0.186,Training,1-butyl-3-methylimidazolium dicyanamide,CCCCN1C=C[N+](=C1)C.C(=[N-])=NC#N,CCCCn1cc[n+](C)c1.N#CN=C=[N-],8,200,192,8
283.15,20.0,0.186,Training,1-butyl-3-methylimidazolium dicyanamide,CCCCN1C=C[N+](=C1)C.C(=[N-])=NC#N,C[n+]1cn(CCCC)cc1.N#CN=C=[N-],8,200,192,8
283.15,20.0,0.186,Training,1-butyl-3-methylimidazolium dicyanamide,CCCCN1C=C[N+](=C1)C.C(=[N-])=NC#N,C(#N)N=C=[N-].[n+]1(cn(CCCC)cc1)C,8,200,192,8
283.15,20.0,0.186,Training,1-butyl-3-methylimidazolium dicyanamide,CCCCN1C=C[N+](=C1)C.C(=[N-])=NC#N,CCCCn1c[n+](C)cc1.N#CN=C=[N-],8,200,192,8
283.15,20.0,0.186,Training,1-butyl-3-methylimidazolium dicyanamide,CCCCN1C=C[N+](=C1)C.C(=[N-])=NC#N,C(CC)Cn1c[n+](C)cc1.N#CN=C=[N-],8,200,192,8
283.15,20.0,0.186,Training,1-butyl-3-methylimidazolium dicyanamide,CCCCN1C=C[N+](=C1)C.C(=[N-])=NC#N,C(CC)Cn1c[n+](cc1)C.C(N=C=[N-])#N,8,200,192,8
283.15,20.0,0.186,Training,1-butyl-3-methylimidazolium dicyanamide,CCCCN1C=C[N+](=C1)C.C(=[N-])=NC#N,C(=[N-])=NC#N.c1n(cc[n+]1C)CCCC,8,200,192,8
283.15,20.0,0.186,Training,1-butyl-3-methylimidazolium dicyanamide,CCCCN1C=C[N+](=C1)C.C(=[N-])=NC#N,C(=NC#N)=[N-].[n+]1(ccn(c1)CCCC)C,8,200,192,8
283.15,20.0,0.186,Training,1-butyl-3-methylimidazolium dicyanamide,CCCCN1C=C[N+](=C1)C.C(=[N-])=NC#N,N(=C=[N-])C#N.[n+]1(cn(cc1)CCCC)C,8,200,192,8
283.15,20.0,0.186,Training,1-butyl-3-methylimidazolium dicyanamide,CCCCN1C=C[N+](=C1)C.C(=[N-])=NC#N,[N-]=C=NC#N.[n+]1(C)cn(CCCC)cc1,8,200,192,8
283.15,30.0,0.1893,Training,1-butyl-3-methylimidazolium dicyanamide,CCCCN1C=C[N+](=C1)C.C(=[N-])=NC#N,CCCCn1cc[n+](C)c1.N#CN=C=[N-],8,300,193,8
283.15,30.0,0.1893,Training,1-butyl-3-methylimidazolium dicyanamide,CCCCN1C=C[N+](=C1)C.C(=[N-])=NC#N,N(C#N)=C=[N-].c1cn(CCCC)c[n+]1C,8,300,193,8