T/K,P/MPa,TC/W m-1 K-1,Data type,Name,SMILES,Normalized SMILES,index,P/bar,RANDOM,IL
283.15,65.0,0.1259,Training,1-butyl-1-methyl-pyrrolidinium bis(trifluoromethylsulfonyl)imide,CCCC[N+]1(CCCC1)C.C(F)(F)(F)S(=O)(=O)[N-]S(=O)(=O)C(F)(F)F,CCCC[N+]1(C)CCCC1.FC(S(=O)(=O)[N-]S(=O)(C(F)(F)F)=O)(F)F,2,650,45,2
283.15,65.0,0.1259,Training,1-butyl-1-methyl-pyrrolidinium bis(trifluoromethylsulfonyl)imide,CCCC[N+]1(CCCC1)C.C(F)(F)(F)S(=O)(=O)[N-]S(=O)(=O)C(F)(F)F,C([N+]1(C)CCCC1)CCC.O=S(=O)(C(F)(F)F)[N-]S(=O)(=O)C(F)(F)F,2,650,45,2
283.15,65.0,0.1259,Training,1-butyl-1-methyl-pyrrolidinium bis(trifluoromethylsulfonyl)imide,CCCC[N+]1(CCCC1)C.C(F)(F)(F)S(=O)(=O)[N-]S(=O)(=O)C(F)(F)F,CCCC[N+]1(CCCC1)C.FC(F)(S(=O)(=O)[N-]S(=O)(=O)C(F)(F)F)F,2,650,45,2
283.15,65.0,0.1259,Training,1-butyl-1-methyl-pyrrolidinium bis(trifluoromethylsulfonyl)imide,CCCC[N+]1(CCCC1)C.C(F)(F)(F)S(=O)(=O)[N-]S(=O)(=O)C(F)(F)F,C(F)(F)(F)S(=O)(=O)[N-]S(=O)(C(F)(F)F)=O.CCCC[N+]1(C)CCCC1,2,650,45,2
293.15,0.1,0.1118,Testing,1-butyl-1-methyl-pyrrolidinium bis(trifluoromethylsulfonyl)imide,CCCC[N+]1(CCCC1)C.C(F)(F)(F)S(=O)(=O)[N-]S(=O)(=O)C(F)(F)F,CCCC[N+]1(C)CCCC1.O=S(=O)([N-]S(=O)(=O)C(F)(F)F)C(F)(F)F,2,1,46,2
293.15,0.1,0.1118,Testing,1-butyl-1-methyl-pyrrolidinium bis(trifluoromethylsulfonyl)imide,CCCC[N+]1(CCCC1)C.C(F)(F)(F)S(=O)(=O)[N-]S(=O)(=O)C(F)(F)F,C(F)(F)(S(=O)(=O)[N-]S(=O)(=O)C(F)(F)F)F.C1CCC[N+]1(CCCC)C,2,1,46,2
293.15,0.1,0.1118,Testing,1-butyl-1-methyl-pyrrolidinium bis(trifluoromethylsulfonyl)imide,CCCC[N+]1(CCCC1)C.C(F)(F)(F)S(=O)(=O)[N-]S(=O)(=O)C(F)(F)F,C1C[N+](C)(CCCC)CC1.FC(F)(S(=O)(=O)[N-]S(=O)(=O)C(F)(F)F)F,2,1,46,2
293.15,0.1,0.1118,Testing,1-butyl-1-methyl-pyrrolidinium bis(trifluoromethylsulfonyl)imide,CCCC[N+]1(CCCC1)C.C(F)(F)(F)S(=O)(=O)[N-]S(=O)(=O)C(F)(F)F,C1C[N+](CCCC)(CC1)C.FC(F)(F)S(=O)(=O)[N-]S(C(F)(F)F)(=O)=O,2,1,46,2
293.15,0.1,0.1118,Testing,1-butyl-1-methyl-pyrrolidinium bis(trifluoromethylsulfonyl)imide,CCCC[N+]1(CCCC1)C.C(F)(F)(F)S(=O)(=O)[N-]S(=O)(=O)C(F)(F)F,C1C[N+](C)(CCCC)CC1.S(C(F)(F)F)([N-]S(=O)(=O)C(F)(F)F)(=O)=O,2,1,46,2
293.15,0.1,0.1118,Testing,1-butyl-1-methyl-pyrrolidinium bis(trifluoromethylsulfonyl)imide,CCCC[N+]1(CCCC1)C.C(F)(F)(F)S(=O)(=O)[N-]S(=O)(=O)C(F)(F)F,C1C[N+](CCCC)(C)CC1.S(=O)([N-]S(C(F)(F)F)(=O)=O)(C(F)(F)F)=O,2,1,46,2
293.15,0.1,0.1118,Testing,1-butyl-1-methyl-pyrrolidinium bis(trifluoromethylsulfonyl)imide,CCCC[N+]1(CCCC1)C.C(F)(F)(F)S(=O)(=O)[N-]S(=O)(=O)C(F)(F)F,C(F)(S([N-]S(C(F)(F)F)(=O)=O)(=O)=O)(F)F.[N+]1(CCCC)(CCCC1)C,2,1,46,2
293.15,0.1,0.1118,Testing,1-butyl-1-methyl-pyrrolidinium bis(trifluoromethylsulfonyl)imide,CCCC[N+]1(CCCC1)C.C(F)(F)(F)S(=O)(=O)[N-]S(=O)(=O)C(F)(F)F,C1CCC[N+]1(C)CCCC.S(=O)(C(F)(F)F)(=O)[N-]S(=O)(=O)C(F)(F)F,2,1,46,2
293.15,0.1,0.1118,Testing,1-butyl-1-methyl-pyrrolidinium bis(trifluoromethylsulfonyl)imide,CCCC[N+]1(CCCC1)C.C(F)(F)(F)S(=O)(=O)[N-]S(=O)(=O)C(F)(F)F,C1[N+](C)(CCCC)CCC1.FC(F)(F)S(=O)([N-]S(=O)(=O)C(F)(F)F)=O,2,1,46,2
293.15,0.1,0.1118,Testing,1-butyl-1-methyl-pyrrolidinium bis(trifluoromethylsulfonyl)imide,CCCC[N+]1(CCCC1)C.C(F)(F)(F)S(=O)(=O)[N-]S(=O)(=O)C(F)(F)F,C[N+]1(CCCC)CCCC1.FC(F)(S(=O)(=O)[N-]S(C(F)(F)F)(=O)=O)F,2,1,46,2
293.15,5.0,0.114,Training,1-butyl-1-methyl-pyrrolidinium bis(trifluoromethylsulfonyl)imide,CCCC[N+]1(CCCC1)C.C(F)(F)(F)S(=O)(=O)[N-]S(=O)(=O)C(F)(F)F,CCCC[N+]1(C)CCCC1.O=S(=O)([N-]S(=O)(=O)C(F)(F)F)C(F)(F)F,2,50,47,2
293.15,5.0,0.114,Training,1-butyl-1-methyl-pyrrolidinium bis(trifluoromethylsulfonyl)imide,CCCC[N+]1(CCCC1)C.C(F)(F)(F)S(=O)(=O)[N-]S(=O)(=O)C(F)(F)F,FC(F)(S(=O)(=O)[N-]S(=O)(C(F)(F)F)=O)F.[N+]1(CCCC)(C)CCCC1,2,50,47,2
293.15,5.0,0.114,Training,1-butyl-1-methyl-pyrrolidinium bis(trifluoromethylsulfonyl)imide,CCCC[N+]1(CCCC1)C.C(F)(F)(F)S(=O)(=O)[N-]S(=O)(=O)C(F)(F)F,CCCC[N+]1(C)CCCC1.FC(S(=O)([N-]S(=O)(=O)C(F)(F)F)=O)(F)F,2,50,47,2
293.15,5.0,0.114,Training,1-butyl-1-methyl-pyrrolidinium bis(trifluoromethylsulfonyl)imide,CCCC[N+]1(CCCC1)C.C(F)(F)(F)S(=O)(=O)[N-]S(=O)(=O)C(F)(F)F,C(CC[N+]1(CCCC1)C)C.O=S(=O)(C(F)(F)F)[N-]S(=O)(C(F)(F)F)=O,2,50,47,2
293.15,5.0,0.114,Training,1-butyl-1-methyl-pyrrolidinium bis(trifluoromethylsulfonyl)imide,CCCC[N+]1(CCCC1)C.C(F)(F)(F)S(=O)(=O)[N-]S(=O)(=O)C(F)(F)F,C1[N+](C)(CCC1)CCCC.FC(F)(S([N-]S(C(F)(F)F)(=O)=O)(=O)=O)F,2,50,47,2
293.15,5.0,0.114,Training,1-butyl-1-methyl-pyrrolidinium bis(trifluoromethylsulfonyl)imide,CCCC[N+]1(CCCC1)C.C(F)(F)(F)S(=O)(=O)[N-]S(=O)(=O)C(F)(F)F,C[N+]1(CCCC)CCCC1.O=S(=O)([N-]S(=O)(C(F)(F)F)=O)C(F)(F)F,2,50,47,2
293.15,5.0,0.114,Training,1-butyl-1-methyl-pyrrolidinium bis(trifluoromethylsulfonyl)imide,CCCC[N+]1(CCCC1)C.C(F)(F)(F)S(=O)(=O)[N-]S(=O)(=O)C(F)(F)F,FC(F)(F)S(=O)(=O)[N-]S(=O)(=O)C(F)(F)F.[N+]1(C)(CCCC)CCCC1,2,50,47,2
293.15,5.0,0.114,Training,1-butyl-1-methyl-pyrrolidinium bis(trifluoromethylsulfonyl)imide,CCCC[N+]1(CCCC1)C.C(F)(F)(F)S(=O)(=O)[N-]S(=O)(=O)C(F)(F)F,C1C[N+](CCCC)(C)CC1.O=S(=O)(C(F)(F)F)[N-]S(=O)(C(F)(F)F)=O,2,50,47,2
293.15,5.0,0.114,Training,1-butyl-1-methyl-pyrrolidinium bis(trifluoromethylsulfonyl)imide,CCCC[N+]1(CCCC1)C.C(F)(F)(F)S(=O)(=O)[N-]S(=O)(=O)C(F)(F)F,C(C[N+]1(CCCC1)C)CC.S(C(F)(F)F)(=O)(=O)[N-]S(=O)(=O)C(F)(F)F,2,50,47,2
293.15,5.0,0.114,Training,1-butyl-1-methyl-pyrrolidinium bis(trifluoromethylsulfonyl)imide,CCCC[N+]1(CCCC1)C.C(F)(F)(F)S(=O)(=O)[N-]S(=O)(=O)C(F)(F)F,C1[N+](CCCC)(CCC1)C.O=S([N-]S(C(F)(F)F)(=O)=O)(=O)C(F)(F)F,2,50,47,2
293.15,10.0,0.1154,Training,1-butyl-1-methyl-pyrrolidinium bis(trifluoromethylsulfonyl)imide,CCCC[N+]1(CCCC1)C.C(F)(F)(F)S(=O)(=O)[N-]S(=O)(=O)C(F)(F)F,CCCC[N+]1(C)CCCC1.O=S(=O)([N-]S(=O)(=O)C(F)(F)F)C(F)(F)F,2,100,48,2
293.15,10.0,0.1154,Training,1-butyl-1-methyl-pyrrolidinium bis(trifluoromethylsulfonyl)imide,CCCC[N+]1(CCCC1)C.C(F)(F)(F)S(=O)(=O)[N-]S(=O)(=O)C(F)(F)F,C([N+]1(C)CCCC1)CCC.FC(S(=O)([N-]S(C(F)(F)F)(=O)=O)=O)(F)F,2,100,48,2
293.15,10.0,0.1154,Training,1-butyl-1-methyl-pyrrolidinium bis(trifluoromethylsulfonyl)imide,CCCC[N+]1(CCCC1)C.C(F)(F)(F)S(=O)(=O)[N-]S(=O)(=O)C(F)(F)F,C(CC)C[N+]1(C)CCCC1.FC(F)(F)S([N-]S(C(F)(F)F)(=O)=O)(=O)=O,2,100,48,2
293.15,10.0,0.1154,Training,1-butyl-1-methyl-pyrrolidinium bis(trifluoromethylsulfonyl)imide,CCCC[N+]1(CCCC1)C.C(F)(F)(F)S(=O)(=O)[N-]S(=O)(=O)C(F)(F)F,C(F)(S(=O)([N-]S(=O)(=O)C(F)(F)F)=O)(F)F.C[N+]1(CCCC1)CCCC,2,100,48,2
293.15,10.0,0.1154,Training,1-butyl-1-methyl-pyrrolidinium bis(trifluoromethylsulfonyl)imide,CCCC[N+]1(CCCC1)C.C(F)(F)(F)S(=O)(=O)[N-]S(=O)(=O)C(F)(F)F,C1CCC[N+]1(C)CCCC.S(=O)(C(F)(F)F)(=O)[N-]S(=O)(=O)C(F)(F)F,2,100,48,2
293.15,10.0,0.1154,Training,1-butyl-1-methyl-pyrrolidinium bis(trifluoromethylsulfonyl)imide,CCCC[N+]1(CCCC1)C.C(F)(F)(F)S(=O)(=O)[N-]S(=O)(=O)C(F)(F)F,FC(F)(F)S([N-]S(C(F)(F)F)(=O)=O)(=O)=O.[N+]1(CCCC1)(CCCC)C,2,100,48,2
293.15,10.0,0.1154,Training,1-butyl-1-methyl-pyrrolidinium bis(trifluoromethylsulfonyl)imide,CCCC[N+]1(CCCC1)C.C(F)(F)(F)S(=O)(=O)[N-]S(=O)(=O)C(F)(F)F,C1[N+](C)(CCCC)CCC1.FC(F)(F)S(=O)([N-]S(=O)(=O)C(F)(F)F)=O,2,100,48,2
293.15,10.0,0.1154,Training,1-butyl-1-methyl-pyrrolidinium bis(trifluoromethylsulfonyl)imide,CCCC[N+]1(CCCC1)C.C(F)(F)(F)S(=O)(=O)[N-]S(=O)(=O)C(F)(F)F,C1CCC[N+]1(C)CCCC.FC(F)(S(=O)([N-]S(C(F)(F)F)(=O)=O)=O)F,2,100,48,2
293.15,10.0,0.1154,Training,1-butyl-1-methyl-pyrrolidinium bis(trifluoromethylsulfonyl)imide,CCCC[N+]1(CCCC1)C.C(F)(F)(F)S(=O)(=O)[N-]S(=O)(=O)C(F)(F)F,C([N+]1(CCCC1)C)CCC.[N-](S(=O)(=O)C(F)(F)F)S(=O)(C(F)(F)F)=O,2,100,48,2
293.15,10.0,0.1154,Training,1-butyl-1-methyl-pyrrolidinium bis(trifluoromethylsulfonyl)imide,CCCC[N+]1(CCCC1)C.C(F)(F)(F)S(=O)(=O)[N-]S(=O)(=O)C(F)(F)F,C[N+]1(CCCC1)CCCC.S(C(F)(F)F)(=O)(=O)[N-]S(=O)(=O)C(F)(F)F,2,100,48,2
293.15,20.0,0.1183,Training,1-butyl-1-methyl-pyrrolidinium bis(trifluoromethylsulfonyl)imide,CCCC[N+]1(CCCC1)C.C(F)(F)(F)S(=O)(=O)[N-]S(=O)(=O)C(F)(F)F,CCCC[N+]1(C)CCCC1.O=S(=O)([N-]S(=O)(=O)C(F)(F)F)C(F)(F)F,2,200,49,2
293.15,20.0,0.1183,Training,1-butyl-1-methyl-pyrrolidinium bis(trifluoromethylsulfonyl)imide,CCCC[N+]1(CCCC1)C.C(F)(F)(F)S(=O)(=O)[N-]S(=O)(=O)C(F)(F)F,C[N+]1(CCCC)CCCC1.FC(F)(S([N-]S(=O)(=O)C(F)(F)F)(=O)=O)F,2,200,49,2
293.15,20.0,0.1183,Training,1-butyl-1-methyl-pyrrolidinium bis(trifluoromethylsulfonyl)imide,CCCC[N+]1(CCCC1)C.C(F)(F)(F)S(=O)(=O)[N-]S(=O)(=O)C(F)(F)F,C[N+]1(CCCC1)CCCC.[N-](S(C(F)(F)F)(=O)=O)S(C(F)(F)F)(=O)=O,2,200,49,2
293.15,20.0,0.1183,Training,1-butyl-1-methyl-pyrrolidinium bis(trifluoromethylsulfonyl)imide,CCCC[N+]1(CCCC1)C.C(F)(F)(F)S(=O)(=O)[N-]S(=O)(=O)C(F)(F)F,CCCC[N+]1(CCCC1)C.FC(F)(S([N-]S(C(F)(F)F)(=O)=O)(=O)=O)F,2,200,49,2
293.15,20.0,0.1183,Training,1-butyl-1-methyl-pyrrolidinium bis(trifluoromethylsulfonyl)imide,CCCC[N+]1(CCCC1)C.C(F)(F)(F)S(=O)(=O)[N-]S(=O)(=O)C(F)(F)F,C(CC)C[N+]1(CCCC1)C.FC(F)(F)S(=O)(=O)[N-]S(=O)(=O)C(F)(F)F,2,200,49,2
293.15,20.0,0.1183,Training,1-butyl-1-methyl-pyrrolidinium bis(trifluoromethylsulfonyl)imide,CCCC[N+]1(CCCC1)C.C(F)(F)(F)S(=O)(=O)[N-]S(=O)(=O)C(F)(F)F,C(CCC)[N+]1(CCCC1)C.O=S(=O)(C(F)(F)F)[N-]S(C(F)(F)F)(=O)=O,2,200,49,2
293.15,20.0,0.1183,Training,1-butyl-1-methyl-pyrrolidinium bis(trifluoromethylsulfonyl)imide,CCCC[N+]1(CCCC1)C.C(F)(F)(F)S(=O)(=O)[N-]S(=O)(=O)C(F)(F)F,CCCC[N+]1(CCCC1)C.S([N-]S(=O)(C(F)(F)F)=O)(C(F)(F)F)(=O)=O,2,200,49,2
293.15,20.0,0.1183,Training,1-butyl-1-methyl-pyrrolidinium bis(trifluoromethylsulfonyl)imide,CCCC[N+]1(CCCC1)C.C(F)(F)(F)S(=O)(=O)[N-]S(=O)(=O)C(F)(F)F,C1[N+](C)(CCC1)CCCC.FC(F)(F)S(=O)(=O)[N-]S(=O)(C(F)(F)F)=O,2,200,49,2
293.15,20.0,0.1183,Training,1-butyl-1-methyl-pyrrolidinium bis(trifluoromethylsulfonyl)imide,CCCC[N+]1(CCCC1)C.C(F)(F)(F)S(=O)(=O)[N-]S(=O)(=O)C(F)(F)F,CCCC[N+]1(C)CCCC1.FC(S([N-]S(=O)(C(F)(F)F)=O)(=O)=O)(F)F,2,200,49,2
293.15,20.0,0.1183,Training,1-butyl-1-methyl-pyrrolidinium bis(trifluoromethylsulfonyl)imide,CCCC[N+]1(CCCC1)C.C(F)(F)(F)S(=O)(=O)[N-]S(=O)(=O)C(F)(F)F,C1[N+](CCCC)(CCC1)C.O=S(=O)(C(F)(F)F)[N-]S(=O)(=O)C(F)(F)F,2,200,49,2
293.15,30.0,0.1194,Testing,1-butyl-1-methyl-pyrrolidinium bis(trifluoromethylsulfonyl)imide,CCCC[N+]1(CCCC1)C.C(F)(F)(F)S(=O)(=O)[N-]S(=O)(=O)C(F)(F)F,CCCC[N+]1(C)CCCC1.O=S(=O)([N-]S(=O)(=O)C(F)(F)F)C(F)(F)F,2,300,50,2
293.15,30.0,0.1194,Testing,1-butyl-1-methyl-pyrrolidinium bis(trifluoromethylsulfonyl)imide,CCCC[N+]1(CCCC1)C.C(F)(F)(F)S(=O)(=O)[N-]S(=O)(=O)C(F)(F)F,C(CC)C[N+]1(CCCC1)C.[N-](S(=O)(C(F)(F)F)=O)S(C(F)(F)F)(=O)=O,2,300,50,2
293.15,30.0,0.1194,Testing,1-butyl-1-methyl-pyrrolidinium bis(trifluoromethylsulfonyl)imide,CCCC[N+]1(CCCC1)C.C(F)(F)(F)S(=O)(=O)[N-]S(=O)(=O)C(F)(F)F,C1C[N+](CCCC)(C)CC1.FC(F)(F)S(=O)([N-]S(C(F)(F)F)(=O)=O)=O,2,300,50,2
293.15,30.0,0.1194,Testing,1-butyl-1-methyl-pyrrolidinium bis(trifluoromethylsulfonyl)imide,CCCC[N+]1(CCCC1)C.C(F)(F)(F)S(=O)(=O)[N-]S(=O)(=O)C(F)(F)F,C(CC)C[N+]1(CCCC1)C.O=S(C(F)(F)F)(=O)[N-]S(C(F)(F)F)(=O)=O,2,300,50,2
293.15,30.0,0.1194,Testing,1-butyl-1-methyl-pyrrolidinium bis(trifluoromethylsulfonyl)imide,CCCC[N+]1(CCCC1)C.C(F)(F)(F)S(=O)(=O)[N-]S(=O)(=O)C(F)(F)F,C(C[N+]1(CCCC1)C)CC.C(F)(S(=O)([N-]S(=O)(=O)C(F)(F)F)=O)(F)F,2,300,50,2
293.15,30.0,0.1194,Testing,1-butyl-1-methyl-pyrrolidinium bis(trifluoromethylsulfonyl)imide,CCCC[N+]1(CCCC1)C.C(F)(F)(F)S(=O)(=O)[N-]S(=O)(=O)C(F)(F)F,CCCC[N+]1(CCCC1)C.FC(F)(S(=O)([N-]S(C(F)(F)F)(=O)=O)=O)F,2,300,50,2
293.15,30.0,0.1194,Testing,1-butyl-1-methyl-pyrrolidinium bis(trifluoromethylsulfonyl)imide,CCCC[N+]1(CCCC1)C.C(F)(F)(F)S(=O)(=O)[N-]S(=O)(=O)C(F)(F)F,C([N+]1(CCCC1)C)CCC.O=S([N-]S(=O)(C(F)(F)F)=O)(=O)C(F)(F)F,2,300,50,2
293.15,30.0,0.1194,Testing,1-butyl-1-methyl-pyrrolidinium bis(trifluoromethylsulfonyl)imide,CCCC[N+]1(CCCC1)C.C(F)(F)(F)S(=O)(=O)[N-]S(=O)(=O)C(F)(F)F,CCCC[N+]1(C)CCCC1.S(=O)([N-]S(=O)(C(F)(F)F)=O)(=O)C(F)(F)F,2,300,50,2
293.15,30.0,0.1194,Testing,1-butyl-1-methyl-pyrrolidinium bis(trifluoromethylsulfonyl)imide,CCCC[N+]1(CCCC1)C.C(F)(F)(F)S(=O)(=O)[N-]S(=O)(=O)C(F)(F)F,C(CC[N+]1(CCCC1)C)C.O=S(=O)([N-]S(=O)(=O)C(F)(F)F)C(F)(F)F,2,300,50,2
293.15,30.0,0.1194,Testing,1-butyl-1-methyl-pyrrolidinium bis(trifluoromethylsulfonyl)imide,CCCC[N+]1(CCCC1)C.C(F)(F)(F)S(=O)(=O)[N-]S(=O)(=O)C(F)(F)F,C1CC[N+](CCCC)(C)C1.FC(F)(S(=O)([N-]S(=O)(=O)C(F)(F)F)=O)F,2,300,50,2
293.15,40.0,0.1201,Testing,1-butyl-1-methyl-pyrrolidinium bis(trifluoromethylsulfonyl)imide,CCCC[N+]1(CCCC1)C.C(F)(F)(F)S(=O)(=O)[N-]S(=O)(=O)C(F)(F)F,CCCC[N+]1(C)CCCC1.O=S(=O)([N-]S(=O)(=O)C(F)(F)F)C(F)(F)F,2,400,51,2
293.15,40.0,0.1201,Testing,1-butyl-1-methyl-pyrrolidinium bis(trifluoromethylsulfonyl)imide,CCCC[N+]1(CCCC1)C.C(F)(F)(F)S(=O)(=O)[N-]S(=O)(=O)C(F)(F)F,C1[N+](CCC1)(C)CCCC.FC(F)(F)S([N-]S(C(F)(F)F)(=O)=O)(=O)=O,2,400,51,2
293.15,40.0,0.1201,Testing,1-butyl-1-methyl-pyrrolidinium bis(trifluoromethylsulfonyl)imide,CCCC[N+]1(CCCC1)C.C(F)(F)(F)S(=O)(=O)[N-]S(=O)(=O)C(F)(F)F,C([N+]1(C)CCCC1)CCC.FC(F)(F)S([N-]S(C(F)(F)F)(=O)=O)(=O)=O,2,400,51,2
293.15,40.0,0.1201,Testing,1-butyl-1-methyl-pyrrolidinium bis(trifluoromethylsulfonyl)imide,CCCC[N+]1(CCCC1)C.C(F)(F)(F)S(=O)(=O)[N-]S(=O)(=O)C(F)(F)F,[N+]1(C)(CCCC1)CCCC.[N-](S(=O)(C(F)(F)F)=O)S(=O)(C(F)(F)F)=O,2,400,51,2
293.15,40.0,0.1201,Testing,1-butyl-1-methyl-pyrrolidinium bis(trifluoromethylsulfonyl)imide,CCCC[N+]1(CCCC1)C.C(F)(F)(F)S(=O)(=O)[N-]S(=O)(=O)C(F)(F)F,C1[N+](CCC1)(CCCC)C.O=S([N-]S(C(F)(F)F)(=O)=O)(C(F)(F)F)=O,2,400,51,2
293.15,40.0,0.1201,Testing,1-butyl-1-methyl-pyrrolidinium bis(trifluoromethylsulfonyl)imide,CCCC[N+]1(CCCC1)C.C(F)(F)(F)S(=O)(=O)[N-]S(=O)(=O)C(F)(F)F,O=S(=O)(C(F)(F)F)[N-]S(C(F)(F)F)(=O)=O.[N+]1(C)(CCCC1)CCCC,2,400,51,2
293.15,40.0,0.1201,Testing,1-butyl-1-methyl-pyrrolidinium bis(trifluoromethylsulfonyl)imide,CCCC[N+]1(CCCC1)C.C(F)(F)(F)S(=O)(=O)[N-]S(=O)(=O)C(F)(F)F,CCCC[N+]1(CCCC1)C.[N-](S(=O)(C(F)(F)F)=O)S(=O)(C(F)(F)F)=O,2,400,51,2
293.15,40.0,0.1201,Testing,1-butyl-1-methyl-pyrrolidinium bis(trifluoromethylsulfonyl)imide,CCCC[N+]1(CCCC1)C.C(F)(F)(F)S(=O)(=O)[N-]S(=O)(=O)C(F)(F)F,C1CCC[N+]1(CCCC)C.FC(S(=O)(=O)[N-]S(=O)(C(F)(F)F)=O)(F)F,2,400,51,2
293.15,40.0,0.1201,Testing,1-butyl-1-methyl-pyrrolidinium bis(trifluoromethylsulfonyl)imide,CCCC[N+]1(CCCC1)C.C(F)(F)(F)S(=O)(=O)[N-]S(=O)(=O)C(F)(F)F,C1CC[N+](CCCC)(C1)C.FC(S(=O)(=O)[N-]S(=O)(=O)C(F)(F)F)(F)F,2,400,51,2
293.15,40.0,0.1201,Testing,1-butyl-1-methyl-pyrrolidinium bis(trifluoromethylsulfonyl)imide,CCCC[N+]1(CCCC1)C.C(F)(F)(F)S(=O)(=O)[N-]S(=O)(=O)C(F)(F)F,S([N-]S(=O)(C(F)(F)F)=O)(=O)(=O)C(F)(F)F.[N+]1(CCCC1)(CCCC)C,2,400,51,2
293.15,50.0,0.1228,Training,1-butyl-1-methyl-pyrrolidinium bis(trifluoromethylsulfonyl)imide,CCCC[N+]1(CCCC1)C.C(F)(F)(F)S(=O)(=O)[N-]S(=O)(=O)C(F)(F)F,CCCC[N+]1(C)CCCC1.O=S(=O)([N-]S(=O)(=O)C(F)(F)F)C(F)(F)F,2,500,52,2
293.15,50.0,0.1228,Training,1-butyl-1-methyl-pyrrolidinium bis(trifluoromethylsulfonyl)imide,CCCC[N+]1(CCCC1)C.C(F)(F)(F)S(=O)(=O)[N-]S(=O)(=O)C(F)(F)F,C1CCC[N+]1(CCCC)C.S(C(F)(F)F)([N-]S(=O)(=O)C(F)(F)F)(=O)=O,2,500,52,2
293.15,50.0,0.1228,Training,1-butyl-1-methyl-pyrrolidinium bis(trifluoromethylsulfonyl)imide,CCCC[N+]1(CCCC1)C.C(F)(F)(F)S(=O)(=O)[N-]S(=O)(=O)C(F)(F)F,C1CC[N+](C)(CCCC)C1.O=S(=O)([N-]S(=O)(=O)C(F)(F)F)C(F)(F)F,2,500,52,2
293.15,50.0,0.1228,Training,1-butyl-1-methyl-pyrrolidinium bis(trifluoromethylsulfonyl)imide,CCCC[N+]1(CCCC1)C.C(F)(F)(F)S(=O)(=O)[N-]S(=O)(=O)C(F)(F)F,C1C[N+](CC1)(CCCC)C.O=S([N-]S(=O)(C(F)(F)F)=O)(C(F)(F)F)=O,2,500,52,2
293.15,50.0,0.1228,Training,1-butyl-1-methyl-pyrrolidinium bis(trifluoromethylsulfonyl)imide,CCCC[N+]1(CCCC1)C.C(F)(F)(F)S(=O)(=O)[N-]S(=O)(=O)C(F)(F)F,C1CC[N+](C1)(C)CCCC.S(=O)([N-]S(C(F)(F)F)(=O)=O)(C(F)(F)F)=O,2,500,52,2
293.15,50.0,0.1228,Training,1-butyl-1-methyl-pyrrolidinium bis(trifluoromethylsulfonyl)imide,CCCC[N+]1(CCCC1)C.C(F)(F)(F)S(=O)(=O)[N-]S(=O)(=O)C(F)(F)F,CCCC[N+]1(C)CCCC1.O=S([N-]S(=O)(C(F)(F)F)=O)(C(F)(F)F)=O,2,500,52,2
293.15,50.0,0.1228,Training,1-butyl-1-methyl-pyrrolidinium bis(trifluoromethylsulfonyl)imide,CCCC[N+]1(CCCC1)C.C(F)(F)(F)S(=O)(=O)[N-]S(=O)(=O)C(F)(F)F,CCCC[N+]1(C)CCCC1.O=S([N-]S(=O)(=O)C(F)(F)F)(=O)C(F)(F)F,2,500,52,2
293.15,50.0,0.1228,Training,1-butyl-1-methyl-pyrrolidinium bis(trifluoromethylsulfonyl)imide,CCCC[N+]1(CCCC1)C.C(F)(F)(F)S(=O)(=O)[N-]S(=O)(=O)C(F)(F)F,C(CC[N+]1(C)CCCC1)C.[N-](S(C(F)(F)F)(=O)=O)S(=O)(C(F)(F)F)=O,2,500,52,2
293.15,50.0,0.1228,Training,1-butyl-1-methyl-pyrrolidinium bis(trifluoromethylsulfonyl)imide,CCCC[N+]1(CCCC1)C.C(F)(F)(F)S(=O)(=O)[N-]S(=O)(=O)C(F)(F)F,CCCC[N+]1(CCCC1)C.FC(F)(F)S(=O)([N-]S(C(F)(F)F)(=O)=O)=O,2,500,52,2
293.15,50.0,0.1228,Training,1-butyl-1-methyl-pyrrolidinium bis(trifluoromethylsulfonyl)imide,CCCC[N+]1(CCCC1)C.C(F)(F)(F)S(=O)(=O)[N-]S(=O)(=O)C(F)(F)F,C(S(=O)(=O)[N-]S(C(F)(F)F)(=O)=O)(F)(F)F.C[N+]1(CCCC)CCCC1,2,500,52,2
293.15,60.0,0.1259,Training,1-butyl-1-methyl-pyrrolidinium bis(trifluoromethylsulfonyl)imide,CCCC[N+]1(CCCC1)C.C(F)(F)(F)S(=O)(=O)[N-]S(=O)(=O)C(F)(F)F,CCCC[N+]1(C)CCCC1.O=S(=O)([N-]S(=O)(=O)C(F)(F)F)C(F)(F)F,2,600,53,2
293.15,60.0,0.1259,Training,1-butyl-1-methyl-pyrrolidinium bis(trifluoromethylsulfonyl)imide,CCCC[N+]1(CCCC1)C.C(F)(F)(F)S(=O)(=O)[N-]S(=O)(=O)C(F)(F)F,C(C[N+]1(CCCC1)C)CC.FC(F)(F)S([N-]S(C(F)(F)F)(=O)=O)(=O)=O,2,600,53,2
293.15,60.0,0.1259,Training,1-butyl-1-methyl-pyrrolidinium bis(trifluoromethylsulfonyl)imide,CCCC[N+]1(CCCC1)C.C(F)(F)(F)S(=O)(=O)[N-]S(=O)(=O)C(F)(F)F,C1C[N+](CC1)(CCCC)C.[N-](S(C(F)(F)F)(=O)=O)S(=O)(=O)C(F)(F)F,2,600,53,2
293.15,60.0,0.1259,Training,1-butyl-1-methyl-pyrrolidinium bis(trifluoromethylsulfonyl)imide,CCCC[N+]1(CCCC1)C.C(F)(F)(F)S(=O)(=O)[N-]S(=O)(=O)C(F)(F)F,C1CC[N+](C)(C1)CCCC.FC(F)(F)S([N-]S(=O)(C(F)(F)F)=O)(=O)=O,2,600,53,2
293.15,60.0,0.1259,Training,1-butyl-1-methyl-pyrrolidinium bis(trifluoromethylsulfonyl)imide,CCCC[N+]1(CCCC1)C.C(F)(F)(F)S(=O)(=O)[N-]S(=O)(=O)C(F)(F)F,C(CC)C[N+]1(CCCC1)C.FC(F)(F)S(=O)(=O)[N-]S(C(F)(F)F)(=O)=O,2,600,53,2
293.15,60.0,0.1259,Training,1-butyl-1-methyl-pyrrolidinium bis(trifluoromethylsulfonyl)imide,CCCC[N+]1(CCCC1)C.C(F)(F)(F)S(=O)(=O)[N-]S(=O)(=O)C(F)(F)F,C1CCC[N+]1(C)CCCC.S(C(F)(F)F)([N-]S(C(F)(F)F)(=O)=O)(=O)=O,2,600,53,2
293.15,60.0,0.1259,Training,1-butyl-1-methyl-pyrrolidinium bis(trifluoromethylsulfonyl)imide,CCCC[N+]1(CCCC1)C.C(F)(F)(F)S(=O)(=O)[N-]S(=O)(=O)C(F)(F)F,C1CCC[N+]1(CCCC)C.FC(F)(S([N-]S(C(F)(F)F)(=O)=O)(=O)=O)F,2,600,53,2
293.15,60.0,0.1259,Training,1-butyl-1-methyl-pyrrolidinium bis(trifluoromethylsulfonyl)imide,CCCC[N+]1(CCCC1)C.C(F)(F)(F)S(=O)(=O)[N-]S(=O)(=O)C(F)(F)F,C(CC[N+]1(C)CCCC1)C.O=S([N-]S(=O)(=O)C(F)(F)F)(=O)C(F)(F)F,2,600,53,2
293.15,60.0,0.1259,Training,1-butyl-1-methyl-pyrrolidinium bis(trifluoromethylsulfonyl)imide,CCCC[N+]1(CCCC1)C.C(F)(F)(F)S(=O)(=O)[N-]S(=O)(=O)C(F)(F)F,[N+]1(CCCC)(CCCC1)C.[N-](S(C(F)(F)F)(=O)=O)S(C(F)(F)F)(=O)=O,2,600,53,2
293.15,60.0,0.1259,Training,1-butyl-1-methyl-pyrrolidinium bis(trifluoromethylsulfonyl)imide,CCCC[N+]1(CCCC1)C.C(F)(F)(F)S(=O)(=O)[N-]S(=O)(=O)C(F)(F)F,C1CCC[N+]1(C)CCCC.FC(F)(S(=O)(=O)[N-]S(=O)(C(F)(F)F)=O)F,2,600,53,2
293.15,65.0,0.1248,Testing,1-butyl-1-methyl-pyrrolidinium bis(trifluoromethylsulfonyl)imide,CCCC[N+]1(CCCC1)C.C(F)(F)(F)S(=O)(=O)[N-]S(=O)(=O)C(F)(F)F,CCCC[N+]1(C)CCCC1.O=S(=O)([N-]S(=O)(=O)C(F)(F)F)C(F)(F)F,2,650,54,2
293.15,65.0,0.1248,Testing,1-butyl-1-methyl-pyrrolidinium bis(trifluoromethylsulfonyl)imide,CCCC[N+]1(CCCC1)C.C(F)(F)(F)S(=O)(=O)[N-]S(=O)(=O)C(F)(F)F,C1C[N+](CC1)(C)CCCC.FC(F)(S(=O)(=O)[N-]S(=O)(C(F)(F)F)=O)F,2,650,54,2
293.15,65.0,0.1248,Testing,1-butyl-1-methyl-pyrrolidinium bis(trifluoromethylsulfonyl)imide,CCCC[N+]1(CCCC1)C.C(F)(F)(F)S(=O)(=O)[N-]S(=O)(=O)C(F)(F)F,C1C[N+](CC1)(CCCC)C.O=S(=O)(C(F)(F)F)[N-]S(C(F)(F)F)(=O)=O,2,650,54,2
293.15,65.0,0.1248,Testing,1-butyl-1-methyl-pyrrolidinium bis(trifluoromethylsulfonyl)imide,CCCC[N+]1(CCCC1)C.C(F)(F)(F)S(=O)(=O)[N-]S(=O)(=O)C(F)(F)F,C1CC[N+](C)(C1)CCCC.O=S([N-]S(C(F)(F)F)(=O)=O)(=O)C(F)(F)F,2,650,54,2
293.15,65.0,0.1248,Testing,1-butyl-1-methyl-pyrrolidinium bis(trifluoromethylsulfonyl)imide,CCCC[N+]1(CCCC1)C.C(F)(F)(F)S(=O)(=O)[N-]S(=O)(=O)C(F)(F)F,CCCC[N+]1(CCCC1)C.S(=O)(=O)(C(F)(F)F)[N-]S(C(F)(F)F)(=O)=O,2,650,54,2
293.15,65.0,0.1248,Testing,1-butyl-1-methyl-pyrrolidinium bis(trifluoromethylsulfonyl)imide,CCCC[N+]1(CCCC1)C.C(F)(F)(F)S(=O)(=O)[N-]S(=O)(=O)C(F)(F)F,C1[N+](C)(CCC1)CCCC.FC(S([N-]S(=O)(C(F)(F)F)=O)(=O)=O)(F)F,2,650,54,2